LAMMPS (23 Jun 2022 - Update 1)
OMP_NUM_THREADS environment is not set. Defaulting to 1 thread. (src/comm.cpp:98)
  using 1 OpenMP thread(s) per MPI task
Loaded 1 plugins from C:\Users\morga\AppData\Local\LAMMPS 64-bit 23Jun2022\plugins
#### set simulation box #####
units metal                        ## use metal unit system - see lammps manual
boundary p p p
atom_style atomic                  ## default atom style for metals

read_restart restart.equil_NPT     ## read in restart file
Reading restart file ...
  restart file = 23 Jun 2022, LAMMPS = 23 Jun 2022
  restoring atom style atomic from restart
  orthogonal box = (-0.00022001642 -0.00061604599 -0.00022001642) to (17.60022 49.280616 17.60022)
  1 by 1 by 1 MPI processor grid
  restoring pair style lj/cut from restart
  1400 atoms
  read_restart CPU = 0.003 seconds


mass 1 1.0

pair_style lj/cut 2.5  ## set interatomic potential style to be EAM
pair_coeff 1 1 7.615119557037 -0.074391647072 2.5

neighbor 0.3 bin ## define parameters for neighbor list
neigh_modify delay 5 ## define parameters for neighbor list

compute c1 all pe/atom                              ### compute potential energy per atom
compute c2 all cna/atom 0.5                       ### compute CNA per atom
compute c3 all stress/atom	NULL                    ### compute stress tensor per atom



thermo 5 ## Output system information every 5 timesteps
#### Output step No., temperature, potential energy, total energy,
#### total pressure, pressure component, box volume
thermo_style custom step temp pe etotal press pxx pyy pzz pxy pxz pyz vol
thermo_modify format float %10.3f ## set output format
timestep 0.000005 ## set timestep size

### system deform by NVT+Deform ###
reset_timestep 0
dump 1a all custom 200 dump_FCCNi_deform_001.atom id type x y z c_c1 c_c2 c_c3[1] c_c3[2] c_c3[3]
#Using NVT to control temperature
fix 1 all nvt temp 600 600 5
#Using "fix deform" to perform tensile test along y direction
fix 2 all deform 1 y erate 0.005 remap x
run  10000	## run the simulation for 10000 steps
Generated 0 of 0 mixed pair_coeff terms from geometric mixing rule
Unused restart file global fix info:
  fix style: npt, fix ID: 1f
Neighbor list info ...
  update every 1 steps, delay 5 steps, check yes
  max neighbors/atom: 2000, page size: 100000
  master list distance cutoff = 2.8
  ghost atom cutoff = 2.8
  binsize = 1.4, bins = 13 36 13
  2 neighbor lists, perpetual/occasional/extra = 1 1 0
  (1) pair lj/cut, perpetual
      attributes: half, newton on
      pair build: half/bin/atomonly/newton
      stencil: half/bin/3d
      bin: standard
  (2) compute cna/atom, occasional
      attributes: full, newton on
      pair build: full/bin/atomonly
      stencil: full/bin/3d
      bin: standard
Per MPI rank memory allocation (min/avg/max) = 8.088 | 8.088 | 8.088 Mbytes
   Step          Temp          PotEng         TotEng         Press           Pxx            Pyy            Pzz            Pxy            Pxz            Pyz           Volume    
         0     302.376     -0.161     54.519   3792.025   3853.629   3849.790   3672.657     44.607      4.410    221.782  15266.118
         5     302.393     -0.164     54.519   3791.600   3852.618   3849.845   3672.338     44.565      4.569    221.755  15266.120
        10     302.411     -0.167     54.519   3791.161   3851.573   3849.896   3672.014     44.528      4.734    221.727  15266.122
        15     302.429     -0.170     54.519   3790.707   3850.492   3849.943   3671.684     44.496      4.907    221.698  15266.124
        20     302.447     -0.174     54.519   3790.236   3849.374   3849.986   3671.349     44.471      5.087    221.668  15266.125
        25     302.467     -0.177     54.519   3789.749   3848.215   3850.023   3671.008     44.452      5.275    221.639  15266.127
        30     302.487     -0.181     54.519   3789.244   3847.015   3850.055   3670.661     44.440      5.470    221.608  15266.129
        35     302.507     -0.185     54.519   3788.719   3845.769   3850.081   3670.308     44.436      5.674    221.578  15266.131
        40     302.529     -0.189     54.519   3788.175   3844.476   3850.101   3669.949     44.441      5.886    221.548  15266.133
        45     302.551     -0.193     54.519   3787.610   3843.132   3850.114   3669.582     44.457      6.108    221.517  15266.135
        50     302.575     -0.197     54.519   3787.021   3841.734   3850.120   3669.209     44.483      6.338    221.487  15266.137
        55     302.599     -0.201     54.519   3786.409   3840.279   3850.118   3668.829     44.521      6.578    221.458  15266.139
        60     302.624     -0.206     54.519   3785.770   3838.762   3850.108   3668.440     44.572      6.829    221.429  15266.141
        65     302.651     -0.211     54.519   3785.104   3837.180   3850.089   3668.044     44.638      7.090    221.401  15266.143
        70     302.678     -0.216     54.519   3784.409   3835.527   3850.061   3667.640     44.720      7.361    221.374  15266.145
        75     302.707     -0.221     54.519   3783.682   3833.798   3850.022   3667.226     44.820      7.645    221.348  15266.146
        80     302.737     -0.226     54.519   3782.921   3831.988   3849.971   3666.803     44.939      7.940    221.323  15266.148
        85     302.769     -0.232     54.519   3782.123   3830.090   3849.909   3666.371     45.080      8.247    221.301  15266.150
        90     302.802     -0.238     54.519   3781.286   3828.098   3849.833   3665.928     45.244      8.568    221.280  15266.152
        95     302.837     -0.244     54.519   3780.407   3826.003   3849.743   3665.475     45.435      8.902    221.261  15266.154
       100     302.874     -0.251     54.519   3779.482   3823.798   3849.638   3665.010     45.654      9.250    221.246  15266.156
       105     302.913     -0.258     54.519   3778.507   3821.473   3849.516   3664.533     45.905      9.613    221.233  15266.158
       110     302.953     -0.265     54.519   3777.478   3819.017   3849.375   3664.043     46.192      9.992    221.223  15266.160
       115     302.997     -0.273     54.519   3776.391   3816.419   3849.214   3663.540     46.518     10.387    221.216  15266.162
       120     303.042     -0.281     54.519   3775.239   3813.665   3849.031   3663.023     46.888     10.799    221.214  15266.164
       125     303.091     -0.290     54.519   3774.018   3810.740   3848.824   3662.490     47.306     11.230    221.215  15266.165
       130     303.143     -0.300     54.519   3772.720   3807.628   3848.590   3661.941     47.779     11.679    221.221  15266.167
       135     303.198     -0.309     54.519   3771.337   3804.310   3848.326   3661.375     48.312     12.149    221.232  15266.169
       140     303.257     -0.320     54.519   3769.861   3800.765   3848.029   3660.790     48.913     12.641    221.249  15266.171
       145     303.319     -0.331     54.519   3768.282   3796.966   3847.695   3660.186     49.591     13.155    221.271  15266.173
       150     303.387     -0.344     54.519   3766.589   3792.887   3847.321   3659.560     50.355     13.693    221.299  15266.175
       155     303.460     -0.357     54.519   3764.769   3788.495   3846.899   3658.912     51.217     14.257    221.334  15266.177
       160     303.538     -0.371     54.519   3762.806   3783.751   3846.426   3658.240     52.190     14.849    221.376  15266.179
       165     303.623     -0.386     54.519   3760.683   3778.614   3845.893   3657.543     53.290     15.470    221.426  15266.181
       170     303.715     -0.403     54.519   3758.380   3773.031   3845.291   3656.817     54.535     16.122    221.484  15266.183
       175     303.815     -0.421     54.519   3755.872   3766.942   3844.612   3656.061     55.948     16.809    221.550  15266.185
       180     303.925     -0.441     54.519   3753.131   3760.277   3843.842   3655.274     57.554     17.533    221.624  15266.186
       185     304.045     -0.463     54.519   3750.123   3752.951   3842.967   3654.451     59.386     18.297    221.708  15266.188
       190     304.178     -0.487     54.519   3746.807   3744.863   3841.968   3653.590     61.483     19.104    221.801  15266.190
       195     304.326     -0.514     54.519   3743.134   3735.889   3840.824   3652.689     63.892     19.961    221.903  15266.192
       200     304.491     -0.543     54.519   3739.043   3725.881   3839.505   3651.743     66.673     20.871    222.015  15266.194
       205     304.675     -0.577     54.519   3734.459   3714.652   3837.976   3650.749     69.900     21.840    222.135  15266.196
       210     304.884     -0.614     54.519   3729.289   3701.973   3836.193   3649.701     73.668     22.877    222.263  15266.198
       215     305.122     -0.657     54.519   3723.415   3687.553   3834.095   3648.597     78.098     23.990    222.398  15266.200
       220     305.395     -0.707     54.519   3716.685   3671.019   3831.606   3647.428     83.349     25.191    222.537  15266.202
       225     305.712     -0.764     54.519   3708.901   3651.891   3828.621   3646.191     89.631     26.493    222.676  15266.204
       230     306.084     -0.831     54.519   3699.803   3629.531   3825.000   3644.876     97.227     27.917    222.810  15266.206
       235     306.526     -0.911     54.519   3689.035   3603.083   3820.546   3643.477    106.529     29.486    222.930  15266.207
       240     307.060     -1.008     54.519   3676.110   3571.369   3814.978   3641.983    118.090     31.234    223.023  15266.209
       245     307.718     -1.127     54.519   3660.334   3532.733   3807.884   3640.384    132.710     33.208    223.069  15266.211
       250     308.544     -1.276     54.519   3640.694   3484.776   3798.641   3638.665    151.582     35.477    223.035  15266.213
       255     309.613     -1.469     54.519   3615.668   3423.921   3786.272   3636.813    176.551     38.143    222.870  15266.215
       260     311.043     -1.728     54.520   3582.881   3344.663   3769.175   3634.805    210.570     41.367    222.487  15266.217
       265     313.043     -2.089     54.520   3538.520   3238.324   3744.617   3632.618    258.549     45.407    221.738  15266.219
       270     316.004     -2.624     54.520   3476.431   3091.327   3707.748   3630.217    328.800     50.679    220.363  15266.221
       275     320.728     -3.478     54.521   3387.954   2886.183   3650.121   3627.559    434.382     57.760    217.933  15266.223
       280     328.977     -4.968     54.523   3275.697   2639.633   3562.842   3624.616    580.617     66.346    214.172  15266.225
       285     343.588     -7.615     54.517   3349.683   2894.006   3533.240   3621.803    545.162     60.765    215.390  15266.227
       290     338.703     -6.838     54.412   6613.162  10853.471   5360.218   3625.797  -3286.027   -179.212    331.698  15266.228
       295     339.727     -7.022     54.413   6676.653  10292.381   6114.732   3622.847  -3921.812   -181.678    361.334  15266.230
       300     349.553     -8.694     54.518   3233.670   2224.840   3865.011   3611.160    290.287     65.725    231.459  15266.232
       305     340.307     -7.015     54.524   3049.128   1841.708   3699.269   3606.408    476.068     72.728    226.129  15266.234
       310     340.916     -7.125     54.524   3046.314   1814.706   3722.653   3601.583    393.196     65.202    230.728  15266.236
       315     351.228     -9.000     54.514   3296.854   2531.677   3762.728   3596.158    412.492     67.810    236.471  15266.238
       320     332.641     -5.720     54.433   7615.590  15438.042   3817.416   3591.311   1008.521    203.851    247.875  15266.240
       325     344.827     -7.946     54.411   5807.367  10061.659   3776.892   3583.549    199.015    153.244    244.281  15266.242
       330     342.669     -7.447     54.520   3273.744   2465.478   3781.555   3574.200     -5.071     72.865    246.984  15266.244
       335     328.939     -4.961     54.522   3257.220   2419.015   3788.338   3564.307     30.763     76.009    252.656  15266.246
       340     321.478     -3.614     54.521   3363.578   2746.400   3791.663   3552.671     46.078     85.141    258.709  15266.248
       345     317.331     -2.865     54.520   3441.440   2992.651   3792.929   3538.740     48.489     95.191    265.496  15266.249
       350     314.885     -2.423     54.520   3492.265   3162.316   3792.649   3521.830     44.957    106.401    273.436  15266.251
       355     313.419     -2.157     54.520   3524.320   3281.033   3790.957   3500.970     38.352    119.476    283.013  15266.253
       360     312.598     -2.009     54.520   3542.863   3366.063   3787.779   3474.748     29.711    135.297    294.876  15266.255
       365     312.274     -1.950     54.520   3550.551   3427.768   3782.850   3441.034     19.201    155.050    309.964  15266.257
       370     312.408     -1.975     54.520   3548.137   3472.228   3775.667   3396.515      6.444    180.460    329.709  15266.259
       375     313.059     -2.092     54.520   3534.674   3502.826   3765.360   3335.837     -9.438    214.181    356.384  15266.261
       380     314.407     -2.336     54.520   3507.218   3521.127   3750.479   3250.046    -29.939    260.396    393.718  15266.263
       385     316.863     -2.780     54.520   3460.176   3527.768   3728.719   3124.040    -57.207    325.425    447.796  15266.265
       390     321.339     -3.588     54.521   3386.496   3526.245   3697.519   2935.724    -92.361    415.337    526.611  15266.267
       395     329.858     -5.127     54.523   3305.053   3551.510   3665.540   2698.108   -117.213    499.989    617.917  15266.269
       400     344.202     -7.737     54.507   3635.315   3958.830   3803.282   3143.832    114.899     64.798    367.726  15266.270
       405     318.253     -3.046     54.505   8683.230   7411.278   5792.360  12846.051   2727.587  -5709.919  -4025.162  15266.272
       410     343.526     -7.687     54.435   5203.318   4359.732   4361.777   6888.444    615.836  -1340.512  -1094.296  15266.274
       415     336.508     -6.331     54.521   3356.316   3379.336   3656.860   3032.753   -221.451    611.732    553.951  15266.276
       420     324.178     -4.101     54.522   3363.778   3479.047   3668.837   2943.451   -176.636    537.894    558.155  15266.278
       425     317.458     -2.887     54.521   3460.312   3580.349   3710.247   3090.341   -112.923    400.554    477.297  15266.280
       430     313.612     -2.192     54.520   3532.518   3647.174   3740.096   3210.282    -70.344    304.493    415.802  15266.282
       435     311.208     -1.758     54.520   3582.619   3692.047   3760.398   3295.413    -42.494    239.501    373.004  15266.284
       440     309.594     -1.466     54.520   3618.162   3723.776   3774.550   3356.159    -23.645    194.066    342.677  15266.286
       445     308.447     -1.259     54.519   3644.255   3747.316   3784.754   3400.695    -10.400    161.061    320.478  15266.288
       450     307.596     -1.105     54.519   3664.040   3765.486   3792.341   3434.293     -0.784    136.246    303.709  15266.290
       455     306.943     -0.987     54.519   3679.466   3779.968   3798.128   3460.302      6.390    117.035    290.685  15266.291
       460     306.427     -0.893     54.519   3691.780   3791.812   3802.636   3480.891     11.865    101.792    280.326  15266.293
       465     306.011     -0.818     54.519   3701.806   3801.705   3806.207   3497.506     16.123     89.442    271.918  15266.295
       470     305.668     -0.756     54.519   3710.107   3810.111   3809.074   3511.136     19.487     79.256    264.973  15266.297
       475     305.382     -0.704     54.519   3717.077   3817.356   3811.398   3522.478     22.180     70.726    259.150  15266.299
       480     305.140     -0.661     54.519   3723.000   3823.674   3813.295   3532.031     24.361     63.486    254.202  15266.301
       485     304.933     -0.623     54.519   3728.085   3829.239   3814.851   3540.165     26.145     57.270    249.951  15266.303
       490     304.754     -0.591     54.519   3732.489   3834.184   3816.129   3547.154     27.618     51.877    246.261  15266.305
       495     304.598     -0.563     54.519   3736.331   3838.609   3817.177   3553.208     28.842     47.155    243.029  15266.307
       500     304.462     -0.538     54.519   3739.705   3842.594   3818.032   3558.490     29.868     42.985    240.178  15266.309
       505     304.341     -0.516     54.519   3742.684   3846.204   3818.724   3563.126     30.734     39.277    237.644  15266.311
       510     304.235     -0.497     54.519   3745.326   3849.488   3819.274   3567.217     31.469     35.954    235.378  15266.312
       515     304.140     -0.480     54.519   3747.678   3852.490   3819.701   3570.844     32.096     32.960    233.341  15266.314
       520     304.056     -0.465     54.519   3749.778   3855.243   3820.019   3574.072     32.636     30.245    231.502  15266.316
       525     303.980     -0.451     54.519   3751.658   3857.778   3820.240   3576.955     33.103     27.769    229.833  15266.318
       530     303.912     -0.439     54.519   3753.343   3860.118   3820.374   3579.537     33.511     25.500    228.314  15266.320
       535     303.852     -0.428     54.519   3754.855   3862.284   3820.428   3581.854     33.869     23.410    226.926  15266.322
       540     303.797     -0.418     54.519   3756.213   3864.294   3820.409   3583.936     34.187     21.477    225.656  15266.324
       545     303.749     -0.409     54.519   3757.431   3866.163   3820.320   3585.810     34.471     19.679    224.490  15266.326
       550     303.705     -0.401     54.519   3758.523   3867.904   3820.167   3587.496     34.729     18.001    223.418  15266.328
       555     303.666     -0.394     54.519   3759.499   3869.530   3819.953   3589.013     34.965     16.428    222.431  15266.330
       560     303.631     -0.388     54.519   3760.368   3871.049   3819.679   3590.377     35.184     14.946    221.523  15266.332
       565     303.600     -0.382     54.519   3761.139   3872.470   3819.347   3591.600     35.389     13.546    220.685  15266.333
       570     303.573     -0.377     54.519   3761.819   3873.802   3818.959   3592.694     35.586     12.216    219.914  15266.335
       575     303.549     -0.373     54.519   3762.412   3875.052   3818.515   3593.669     35.776     10.949    219.205  15266.337
       580     303.529     -0.369     54.519   3762.924   3876.224   3818.016   3594.532     35.963      9.737    218.554  15266.339
       585     303.511     -0.366     54.519   3763.358   3877.324   3817.460   3595.291     36.149      8.571    217.958  15266.341
       590     303.497     -0.364     54.519   3763.719   3878.358   3816.847   3595.951     36.337      7.447    217.415  15266.343
       595     303.485     -0.361     54.519   3764.007   3879.329   3816.176   3596.518     36.529      6.359    216.923  15266.345
       600     303.477     -0.360     54.519   3764.226   3880.241   3815.444   3596.994     36.727      5.299    216.479  15266.347
       605     303.471     -0.359     54.519   3764.377   3881.096   3814.651   3597.385     36.934      4.265    216.085  15266.349
       610     303.467     -0.358     54.519   3764.461   3881.899   3813.792   3597.691     37.151      3.250    215.738  15266.351
       615     303.467     -0.358     54.519   3764.477   3882.650   3812.865   3597.916     37.382      2.251    215.439  15266.353
       620     303.469     -0.358     54.519   3764.426   3883.353   3811.866   3598.059     37.628      1.263    215.189  15266.354
       625     303.473     -0.359     54.519   3764.307   3884.009   3810.790   3598.123     37.891      0.281    214.988  15266.356
       630     303.481     -0.361     54.519   3764.119   3884.619   3809.632   3598.106     38.176     -0.699    214.837  15266.358
       635     303.491     -0.363     54.519   3763.859   3885.184   3808.386   3598.008     38.483     -1.681    214.740  15266.360
       640     303.504     -0.365     54.519   3763.526   3885.705   3807.045   3597.829     38.817     -2.670    214.697  15266.362
       645     303.521     -0.368     54.519   3763.116   3886.182   3805.602   3597.565     39.181     -3.670    214.714  15266.364
       650     303.540     -0.371     54.519   3762.626   3886.616   3804.046   3597.214     39.578     -4.686    214.793  15266.366
       655     303.563     -0.376     54.519   3762.049   3887.006   3802.369   3596.773     40.014     -5.723    214.939  15266.368
       660     303.590     -0.380     54.519   3761.382   3887.351   3800.556   3596.238     40.492     -6.786    215.159  15266.370
       665     303.621     -0.386     54.519   3760.616   3887.650   3798.594   3595.603     41.019     -7.882    215.459  15266.372
       670     303.655     -0.392     54.519   3759.743   3887.901   3796.468   3594.862     41.602     -9.016    215.847  15266.373
       675     303.695     -0.399     54.519   3758.755   3888.102   3794.156   3594.006     42.247    -10.197    216.335  15266.375
       680     303.740     -0.407     54.519   3757.638   3888.250   3791.637   3593.027     42.965    -11.432    216.933  15266.377
       685     303.790     -0.417     54.519   3756.380   3888.340   3788.885   3591.914     43.765    -12.730    217.657  15266.379
       690     303.847     -0.427     54.519   3754.963   3888.369   3785.867   3590.653     44.660    -14.103    218.523  15266.381
       695     303.911     -0.438     54.519   3753.368   3888.331   3782.547   3589.228     45.666    -15.562    219.554  15266.383
       700     303.983     -0.451     54.519   3751.571   3888.216   3778.878   3587.619     46.800    -17.123    220.775  15266.385
       705     304.064     -0.466     54.519   3749.542   3888.018   3774.805   3585.804     48.085    -18.803    222.219  15266.387
       710     304.157     -0.483     54.519   3747.246   3887.723   3770.262   3583.754     49.549    -20.622    223.923  15266.389
       715     304.262     -0.502     54.519   3744.638   3887.317   3765.164   3581.432     51.226    -22.608    225.939  15266.391
       720     304.382     -0.524     54.519   3741.662   3886.783   3759.410   3578.795     53.158    -24.790    228.328  15266.393
       725     304.520     -0.549     54.519   3738.250   3886.096   3752.866   3575.787     55.400    -27.209    231.169  15266.394
       730     304.680     -0.577     54.519   3734.310   3885.227   3745.367   3572.337     58.022    -29.915    234.564  15266.396
       735     304.866     -0.611     54.519   3729.728   3884.136   3736.695   3568.354     61.114    -32.972    238.647  15266.398
       740     305.085     -0.651     54.519   3724.350   3882.772   3726.563   3563.716     64.797    -36.464    243.595  15266.400
       745     305.347     -0.698     54.519   3717.972   3881.066   3714.588   3558.262     69.233    -40.503    249.649  15266.402
       750     305.662     -0.755     54.519   3710.313   3878.922   3700.246   3551.771     74.643    -45.241    257.138  15266.404
       755     306.049     -0.825     54.519   3700.981   3876.209   3682.800   3543.935     81.339    -50.892    266.529  15266.406
       760     306.532     -0.912     54.519   3689.414   3872.736   3661.196   3534.309     89.767    -57.757    278.493  15266.408
       765     307.150     -1.024     54.519   3674.780   3868.227   3633.877   3522.236    100.587    -66.283    294.032  15266.410
       770     307.963     -1.171     54.519   3655.813   3862.263   3598.470   3506.708    114.799    -77.146    314.681  15266.412
       775     309.071     -1.371     54.520   3630.516   3854.195   3551.234   3486.120    133.972    -91.408    342.880  15266.414
       780     310.650     -1.657     54.520   3595.637   3842.997   3486.088   3457.824    160.628   -110.788    382.644  15266.415
       785     313.030     -2.087     54.520   3545.816   3827.081   3393.045   3417.323    198.808   -138.097    440.694  15266.417
       790     316.896     -2.785     54.521   3472.997   3804.476   3257.198   3357.318    254.119   -177.492    527.560  15266.419
       795     323.758     -4.024     54.522   3374.583   3777.411   3074.532   3271.807    325.119   -229.903    649.389  15266.421
       800     336.511     -6.332     54.521   3377.370   3806.028   3087.334   3238.747    290.736   -226.092    668.307  15266.423
       805     341.180     -7.278     54.419   5550.193   4710.579   7201.989   4738.011  -1639.888    937.370  -1820.884  15266.425
       810     320.450     -3.487     54.461   8351.492   5577.063  12411.080   7066.334  -3778.079   2379.678  -5318.935  15266.427
       815     342.337     -7.396     54.511   3571.215   3772.115   3419.011   3522.517    248.246   -149.682    318.948  15266.429
       820     327.750     -4.746     54.523   3333.669   3717.918   2988.190   3294.899    401.234   -266.427    626.294  15266.431
       825     319.417     -3.241     54.521   3426.071   3766.276   3170.186   3341.751    302.493   -214.211    522.049  15266.433
       830     314.957     -2.435     54.520   3503.630   3801.845   3321.577   3387.467    224.741   -172.075    427.444  15266.435
       835     312.386     -1.971     54.520   3555.012   3824.871   3422.860   3417.304    171.840   -144.851    359.983  15266.436
       840     310.818     -1.687     54.520   3588.457   3839.977   3490.261   3435.135    134.784   -127.765    311.103  15266.438
       845     309.837     -1.510     54.519   3610.118   3850.090   3535.730   3444.534    107.408   -117.414    273.758  15266.440
       850     309.237     -1.401     54.519   3623.661   3856.872   3566.445   3447.665     85.988   -111.822    243.407  15266.442
       855     308.907     -1.342     54.519   3631.178   3861.260   3586.605   3445.670     68.195   -109.909    217.072  15266.444
       860     308.793     -1.321     54.519   3633.790   3863.756   3598.623   3438.990     52.463   -111.169    192.627  15266.446
       865     308.872     -1.335     54.519   3631.952   3864.584   3603.752   3427.518     37.602   -115.508    168.331  15266.448
       870     309.149     -1.386     54.519   3625.582   3863.743   3602.386   3410.617     22.555   -123.201    142.499  15266.450
       875     309.655     -1.477     54.519   3614.046   3860.998   3594.124   3387.015      6.193   -134.951    113.188  15266.452
       880     310.460     -1.622     54.520   3595.995   3855.810   3577.622   3354.553    -12.928   -152.055     77.813  15266.454
       885     311.693     -1.845     54.520   3569.011   3847.146   3550.160   3309.728    -36.939   -176.771     32.552  15266.456
       890     313.605     -2.191     54.520   3528.964   3833.086   3506.748   3247.057    -69.315   -212.987    -28.595  15266.457
       895     316.697     -2.749     54.520   3469.280   3810.046   3438.668   3159.127   -116.040   -267.283   -114.872  15266.459
       900     322.046     -3.716     54.521   3383.608   3771.788   3333.735   3045.301   -186.475   -348.527   -235.478  15266.461
       905     331.955     -5.506     54.523   3311.247   3716.524   3212.483   3004.734   -276.948   -440.035   -340.589  15266.463
       910     346.085     -8.094     54.490   3960.342   3818.980   3720.173   4341.875    -50.690    -57.503    490.839  15266.465
       915     309.249     -1.305     54.618   9722.070   5780.330   9625.355  13760.525   3351.329   4257.563   7961.870  15266.467
       920     346.516     -8.194     54.469   4387.432   4350.736   4619.051   4192.511    666.807    521.230   1025.894  15266.469
       925     334.441     -5.956     54.522   3311.621   3864.235   3388.330   2682.299   -109.585   -332.849   -328.440  15266.471
       930     323.693     -4.013     54.522   3357.031   3825.865   3382.016   2863.212   -144.098   -309.370   -237.215  15266.473
       935     318.011     -2.987     54.521   3441.653   3831.233   3447.814   3045.912   -120.402   -242.138    -99.488  15266.475
       940     314.886     -2.422     54.520   3499.709   3839.464   3497.862   3161.801    -99.021   -189.428      4.020  15266.477
       945     313.114     -2.102     54.520   3535.681   3845.888   3530.196   3230.958    -84.376   -149.980     82.045  15266.478
       950     312.156     -1.929     54.520   3555.959   3850.343   3548.949   3268.585    -75.289   -119.078    145.499  15266.480
       955     311.777     -1.861     54.520   3564.187   3853.172   3556.890   3282.501    -70.566    -93.149    202.240  15266.482
       960     311.895     -1.882     54.520   3561.699   3854.624   3555.074   3275.399    -69.586    -69.545    258.396  15266.484
       965     312.548     -2.000     54.520   3547.864   3854.776   3542.998   3245.819    -72.310    -45.971    319.883  15266.486
       970     313.906     -2.245     54.520   3519.900   3853.494   3518.564   3187.643    -79.310    -19.927    393.882  15266.488
       975     316.375     -2.691     54.520   3472.276   3850.403   3478.266   3088.161    -91.821     11.889    490.283  15266.490
       980     320.861     -3.502     54.521   3397.855   3844.989   3421.372   2927.203   -110.982     53.597    620.029  15266.492
       985     329.395     -5.043     54.523   3314.925   3838.866   3391.543   2714.365   -128.079    101.007    754.837  15266.494
       990     343.806     -7.665     54.507   3640.306   3866.381   3942.259   3112.276     -5.006      3.399    285.899  15266.496
       995     317.679     -2.944     54.504   8717.116   4279.616   9763.518  12108.213   1545.355  -1917.525  -6938.142  15266.498
      1000     343.196     -7.628     54.434   5212.731   3989.911   4970.666   6677.615    361.569   -652.524  -1747.222  15266.499
      1005     336.139     -6.264     54.521   3363.073   3842.295   3156.536   3090.387   -156.222     80.599    810.582  15266.501
      1010     323.804     -4.033     54.522   3372.087   3844.469   3269.438   3002.354   -136.324     88.841    764.719  15266.503
      1015     317.100     -2.822     54.521   3468.780   3853.146   3416.038   3137.156   -100.153     57.898    614.319  15266.505
      1020     313.270     -2.130     54.520   3540.817   3859.563   3514.035   3248.855    -74.928     34.483    506.540  15266.507
      1025     310.880     -1.698     54.520   3590.695   3864.047   3578.905   3329.134    -57.863     18.695    433.581  15266.509
      1030     309.276     -1.408     54.520   3626.027   3867.270   3623.630   3387.181    -45.918      7.991    382.928  15266.511
      1035     308.138     -1.203     54.519   3651.941   3869.676   3655.802   3430.345    -37.220      0.565    346.519  15266.513
      1040     307.294     -1.050     54.519   3671.582   3871.534   3679.809   3463.402    -30.662     -4.703    319.491  15266.515
      1045     306.646     -0.933     54.519   3686.898   3873.013   3698.284   3489.397    -25.568     -8.512    298.860  15266.517
      1050     306.133     -0.840     54.519   3699.134   3874.219   3712.869   3510.314    -21.512    -11.306    282.735  15266.519
      1055     305.719     -0.765     54.519   3709.112   3875.225   3724.634   3527.478    -18.213    -13.376    269.876  15266.520
      1060     305.378     -0.704     54.519   3717.392   3876.077   3734.296   3541.804    -15.482    -14.920    259.442  15266.522
      1065     305.091     -0.652     54.519   3724.367   3876.812   3742.353   3553.935    -13.185    -16.073    250.848  15266.524
      1070     304.848     -0.608     54.519   3730.318   3877.453   3749.162   3564.338    -11.228    -16.931    243.678  15266.526
      1075     304.639     -0.570     54.519   3735.453   3878.020   3754.981   3573.357     -9.541    -17.566    237.627  15266.528
      1080     304.458     -0.537     54.519   3739.928   3878.525   3760.004   3581.254     -8.071    -18.027    232.469  15266.530
      1085     304.298     -0.508     54.519   3743.861   3878.980   3764.377   3588.226     -6.779    -18.352    228.033  15266.532
      1090     304.158     -0.483     54.519   3747.344   3879.392   3768.212   3594.428     -5.634    -18.572    224.188  15266.534
      1095     304.032     -0.460     54.519   3750.451   3879.769   3771.600   3599.984     -4.611    -18.708    220.829  15266.536
      1100     303.920     -0.440     54.519   3753.238   3880.116   3774.608   3604.990     -3.691    -18.777    217.878  15266.538
      1105     303.819     -0.422     54.519   3755.753   3880.437   3777.295   3609.526     -2.858    -18.793    215.269  15266.540
      1110     303.727     -0.405     54.519   3758.033   3880.735   3779.706   3613.657     -2.100    -18.767    212.950  15266.541
      1115     303.644     -0.390     54.519   3760.109   3881.013   3781.879   3617.434     -1.407    -18.706    210.879  15266.543
      1120     303.568     -0.376     54.519   3762.007   3881.275   3783.843   3620.904     -0.769    -18.618    209.021  15266.545
      1125     303.498     -0.364     54.519   3763.750   3881.521   3785.627   3624.102     -0.180    -18.509    207.348  15266.547
      1130     303.434     -0.352     54.519   3765.355   3881.753   3787.250   3627.061      0.367    -18.382    205.835  15266.549
      1135     303.375     -0.341     54.519   3766.837   3881.974   3788.731   3629.806      0.876    -18.241    204.463  15266.551
      1140     303.320     -0.331     54.519   3768.211   3882.183   3790.087   3632.362      1.353    -18.090    203.214  15266.553
      1145     303.269     -0.322     54.519   3769.487   3882.383   3791.331   3634.746      1.800    -17.931    202.075  15266.555
      1150     303.221     -0.314     54.519   3770.675   3882.574   3792.474   3636.977      2.221    -17.765    201.032  15266.557
      1155     303.177     -0.306     54.519   3771.784   3882.757   3793.526   3639.068      2.619    -17.594    200.075  15266.559
      1160     303.135     -0.298     54.519   3772.821   3882.933   3794.497   3641.034      2.996    -17.421    199.196  15266.561
      1165     303.097     -0.291     54.519   3773.793   3883.102   3795.393   3642.884      3.355    -17.245    198.386  15266.562
      1170     303.060     -0.285     54.519   3774.706   3883.265   3796.223   3644.630      3.696    -17.068    197.638  15266.564
      1175     303.026     -0.278     54.519   3775.564   3883.422   3796.990   3646.280      4.023    -16.891    196.947  15266.566
      1180     302.994     -0.273     54.519   3776.372   3883.574   3797.702   3647.842      4.336    -16.714    196.306  15266.568
      1185     302.964     -0.267     54.519   3777.135   3883.721   3798.362   3649.322      4.637    -16.538    195.713  15266.570
      1190     302.935     -0.262     54.519   3777.855   3883.863   3798.975   3650.728      4.926    -16.363    195.161  15266.572
      1195     302.908     -0.257     54.519   3778.537   3884.001   3799.544   3652.064      5.205    -16.191    194.649  15266.574
      1200     302.882     -0.252     54.519   3779.182   3884.135   3800.074   3653.336      5.474    -16.020    194.172  15266.576
      1205     302.858     -0.248     54.519   3779.793   3884.265   3800.566   3654.548      5.736    -15.851    193.728  15266.578
      1210     302.835     -0.244     54.519   3780.373   3884.392   3801.024   3655.704      5.989    -15.685    193.314  15266.580
      1215     302.813     -0.240     54.519   3780.925   3884.515   3801.450   3656.808      6.235    -15.522    192.928  15266.581
      1220     302.792     -0.236     54.519   3781.449   3884.635   3801.847   3657.864      6.475    -15.361    192.568  15266.583
      1225     302.772     -0.232     54.519   3781.948   3884.752   3802.216   3658.874      6.709    -15.204    192.232  15266.585
      1230     302.753     -0.229     54.519   3782.423   3884.867   3802.560   3659.841      6.937    -15.049    191.918  15266.587
      1235     302.735     -0.226     54.519   3782.875   3884.978   3802.879   3660.768      7.160    -14.898    191.626  15266.589
      1240     302.718     -0.223     54.519   3783.307   3885.086   3803.177   3661.657      7.378    -14.750    191.353  15266.591
      1245     302.702     -0.220     54.519   3783.719   3885.192   3803.453   3662.510      7.593    -14.604    191.098  15266.593
      1250     302.686     -0.217     54.519   3784.112   3885.296   3803.710   3663.330      7.803    -14.463    190.860  15266.595
      1255     302.671     -0.214     54.519   3784.488   3885.397   3803.949   3664.117      8.010    -14.324    190.639  15266.597
      1260     302.657     -0.212     54.519   3784.847   3885.495   3804.170   3664.874      8.213    -14.189    190.432  15266.599
      1265     302.643     -0.209     54.519   3785.190   3885.592   3804.376   3665.603      8.413    -14.057    190.241  15266.601
      1270     302.630     -0.207     54.519   3785.518   3885.686   3804.566   3666.303      8.611    -13.928    190.063  15266.602
      1275     302.617     -0.204     54.519   3785.832   3885.778   3804.741   3666.978      8.805    -13.802    189.897  15266.604
      1280     302.606     -0.202     54.519   3786.133   3885.867   3804.904   3667.628      8.998    -13.680    189.745  15266.606
      1285     302.594     -0.200     54.519   3786.421   3885.955   3805.053   3668.254      9.188    -13.560    189.603  15266.608
      1290     302.583     -0.198     54.519   3786.697   3886.041   3805.191   3668.858      9.376    -13.444    189.473  15266.610
      1295     302.573     -0.196     54.519   3786.960   3886.124   3805.317   3669.439      9.562    -13.331    189.354  15266.612
      1300     302.563     -0.195     54.519   3787.213   3886.206   3805.433   3670.000      9.747    -13.222    189.245  15266.614
      1305     302.553     -0.193     54.519   3787.455   3886.286   3805.539   3670.541      9.930    -13.115    189.146  15266.616
      1310     302.544     -0.191     54.519   3787.687   3886.364   3805.635   3671.063     10.111    -13.011    189.056  15266.618
      1315     302.535     -0.190     54.519   3787.909   3886.439   3805.722   3671.566     10.291    -12.910    188.976  15266.620
      1320     302.527     -0.188     54.519   3788.122   3886.513   3805.800   3672.051     10.470    -12.813    188.904  15266.622
      1325     302.518     -0.187     54.519   3788.325   3886.585   3805.870   3672.519     10.648    -12.718    188.841  15266.623
      1330     302.511     -0.185     54.519   3788.520   3886.656   3805.933   3672.971     10.824    -12.626    188.786  15266.625
      1335     302.503     -0.184     54.519   3788.706   3886.724   3805.989   3673.406     11.000    -12.537    188.739  15266.627
      1340     302.496     -0.183     54.519   3788.884   3886.791   3806.037   3673.826     11.175    -12.451    188.699  15266.629
      1345     302.489     -0.181     54.519   3789.055   3886.855   3806.079   3674.230     11.349    -12.368    188.668  15266.631
      1350     302.483     -0.180     54.519   3789.218   3886.918   3806.115   3674.620     11.523    -12.288    188.643  15266.633
      1355     302.477     -0.179     54.519   3789.373   3886.980   3806.144   3674.996     11.695    -12.210    188.626  15266.635
      1360     302.471     -0.178     54.519   3789.521   3887.039   3806.168   3675.357     11.868    -12.136    188.616  15266.637
      1365     302.465     -0.177     54.519   3789.663   3887.097   3806.187   3675.705     12.039    -12.064    188.613  15266.639
      1370     302.460     -0.176     54.519   3789.798   3887.152   3806.201   3676.040     12.211    -11.994    188.616  15266.641
      1375     302.455     -0.175     54.519   3789.926   3887.206   3806.209   3676.361     12.382    -11.928    188.627  15266.643
      1380     302.450     -0.174     54.519   3790.048   3887.259   3806.214   3676.670     12.553    -11.864    188.644  15266.644
      1385     302.445     -0.173     54.519   3790.163   3887.309   3806.213   3676.967     12.723    -11.803    188.667  15266.646
      1390     302.441     -0.173     54.519   3790.273   3887.358   3806.209   3677.251     12.893    -11.744    188.697  15266.648
      1395     302.437     -0.172     54.519   3790.376   3887.405   3806.200   3677.523     13.064    -11.688    188.733  15266.650
      1400     302.433     -0.171     54.519   3790.474   3887.450   3806.187   3677.784     13.234    -11.635    188.776  15266.652
      1405     302.429     -0.170     54.519   3790.566   3887.493   3806.171   3678.033     13.404    -11.584    188.825  15266.654
      1410     302.426     -0.170     54.519   3790.652   3887.535   3806.152   3678.270     13.574    -11.536    188.880  15266.656
      1415     302.423     -0.169     54.519   3790.733   3887.575   3806.128   3678.495     13.744    -11.490    188.941  15266.658
      1420     302.420     -0.169     54.519   3790.808   3887.613   3806.102   3678.710     13.914    -11.448    189.009  15266.660
      1425     302.417     -0.168     54.519   3790.878   3887.649   3806.072   3678.913     14.084    -11.407    189.082  15266.662
      1430     302.414     -0.168     54.519   3790.943   3887.684   3806.039   3679.105     14.255    -11.370    189.162  15266.664
      1435     302.412     -0.167     54.519   3791.002   3887.717   3806.004   3679.286     14.425    -11.334    189.249  15266.665
      1440     302.410     -0.167     54.519   3791.056   3887.748   3805.965   3679.456     14.596    -11.302    189.341  15266.667
      1445     302.408     -0.167     54.519   3791.105   3887.777   3805.924   3679.616     14.768    -11.272    189.440  15266.669
      1450     302.406     -0.166     54.519   3791.149   3887.804   3805.880   3679.764     14.939    -11.245    189.545  15266.671
      1455     302.405     -0.166     54.519   3791.188   3887.830   3805.834   3679.901     15.111    -11.220    189.657  15266.673
      1460     302.403     -0.166     54.519   3791.222   3887.853   3805.784   3680.027     15.284    -11.198    189.775  15266.675
      1465     302.402     -0.166     54.519   3791.250   3887.875   3805.733   3680.142     15.457    -11.179    189.899  15266.677
      1470     302.401     -0.165     54.519   3791.273   3887.895   3805.679   3680.247     15.630    -11.162    190.030  15266.679
      1475     302.400     -0.165     54.519   3791.292   3887.914   3805.622   3680.340     15.805    -11.149    190.168  15266.681
      1480     302.400     -0.165     54.519   3791.305   3887.930   3805.563   3680.421     15.979    -11.138    190.312  15266.683
      1485     302.400     -0.165     54.519   3791.313   3887.944   3805.502   3680.492     16.155    -11.129    190.464  15266.685
      1490     302.399     -0.165     54.519   3791.315   3887.957   3805.438   3680.551     16.331    -11.124    190.622  15266.686
      1495     302.399     -0.165     54.519   3791.313   3887.968   3805.372   3680.599     16.508    -11.122    190.788  15266.688
      1500     302.400     -0.165     54.519   3791.305   3887.977   3805.303   3680.635     16.686    -11.122    190.960  15266.690
      1505     302.400     -0.165     54.519   3791.292   3887.984   3805.232   3680.659     16.864    -11.126    191.141  15266.692
      1510     302.401     -0.165     54.519   3791.273   3887.988   3805.158   3680.671     17.044    -11.132    191.328  15266.694
      1515     302.402     -0.165     54.519   3791.248   3887.991   3805.083   3680.671     17.225    -11.142    191.524  15266.696
      1520     302.403     -0.166     54.519   3791.218   3887.992   3805.004   3680.659     17.407    -11.155    191.727  15266.698
      1525     302.405     -0.166     54.519   3791.183   3887.992   3804.923   3680.634     17.590    -11.171    191.939  15266.700
      1530     302.406     -0.166     54.519   3791.141   3887.989   3804.839   3680.596     17.774    -11.191    192.159  15266.702
      1535     302.408     -0.167     54.519   3791.093   3887.984   3804.753   3680.544     17.960    -11.214    192.387  15266.704
      1540     302.410     -0.167     54.519   3791.040   3887.976   3804.663   3680.479     18.147    -11.241    192.625  15266.706
      1545     302.413     -0.167     54.519   3790.979   3887.967   3804.571   3680.400     18.335    -11.271    192.871  15266.707
      1550     302.415     -0.168     54.519   3790.913   3887.956   3804.475   3680.307     18.525    -11.306    193.127  15266.709
      1555     302.418     -0.168     54.519   3790.839   3887.942   3804.376   3680.199     18.717    -11.344    193.393  15266.711
      1560     302.421     -0.169     54.519   3790.759   3887.927   3804.274   3680.075     18.911    -11.386    193.668  15266.713
      1565     302.425     -0.170     54.519   3790.671   3887.909   3804.169   3679.936     19.106    -11.433    193.954  15266.715
      1570     302.429     -0.170     54.519   3790.576   3887.888   3804.059   3679.781     19.304    -11.484    194.251  15266.717
      1575     302.433     -0.171     54.519   3790.474   3887.866   3803.946   3679.609     19.503    -11.540    194.559  15266.719
      1580     302.437     -0.172     54.519   3790.363   3887.840   3803.828   3679.420     19.706    -11.600    194.879  15266.721
      1585     302.442     -0.173     54.519   3790.244   3887.813   3803.706   3679.212     19.910    -11.666    195.210  15266.723
      1590     302.447     -0.174     54.519   3790.116   3887.783   3803.580   3678.986     20.117    -11.737    195.555  15266.725
      1595     302.452     -0.175     54.519   3789.980   3887.750   3803.448   3678.740     20.327    -11.813    195.913  15266.727
      1600     302.458     -0.176     54.519   3789.833   3887.715   3803.311   3678.474     20.540    -11.896    196.284  15266.728
      1605     302.464     -0.177     54.519   3789.677   3887.677   3803.168   3678.187     20.756    -11.984    196.670  15266.730
      1610     302.471     -0.178     54.519   3789.511   3887.636   3803.019   3677.877     20.976    -12.079    197.071  15266.732
      1615     302.478     -0.179     54.519   3789.333   3887.592   3802.864   3677.544     21.199    -12.180    197.488  15266.734
      1620     302.485     -0.181     54.519   3789.144   3887.545   3802.702   3677.186     21.426    -12.289    197.921  15266.736
      1625     302.493     -0.182     54.519   3788.943   3887.495   3802.532   3676.802     21.658    -12.406    198.373  15266.738
      1630     302.502     -0.184     54.519   3788.729   3887.441   3802.354   3676.391     21.893    -12.530    198.843  15266.740
      1635     302.511     -0.185     54.519   3788.501   3887.385   3802.167   3675.952     22.134    -12.663    199.332  15266.742
      1640     302.520     -0.187     54.519   3788.259   3887.324   3801.971   3675.482     22.380    -12.806    199.843  15266.744
      1645     302.531     -0.189     54.519   3788.001   3887.260   3801.765   3674.980     22.631    -12.957    200.375  15266.746
      1650     302.541     -0.191     54.519   3787.728   3887.191   3801.548   3674.443     22.889    -13.120    200.931  15266.748
      1655     302.553     -0.193     54.519   3787.436   3887.119   3801.319   3673.870     23.153    -13.293    201.512  15266.749
      1660     302.565     -0.195     54.519   3787.126   3887.041   3801.078   3673.259     23.424    -13.479    202.120  15266.751
      1665     302.578     -0.197     54.519   3786.796   3886.960   3800.822   3672.606     23.702    -13.677    202.756  15266.753
      1670     302.592     -0.200     54.519   3786.444   3886.873   3800.552   3671.909     23.989    -13.889    203.423  15266.755
      1675     302.607     -0.203     54.519   3786.070   3886.780   3800.265   3671.164     24.285    -14.116    204.123  15266.757
      1680     302.623     -0.205     54.519   3785.670   3886.682   3799.960   3670.367     24.590    -14.360    204.858  15266.759
      1685     302.640     -0.209     54.519   3785.243   3886.578   3799.636   3669.516     24.906    -14.620    205.631  15266.761
      1690     302.658     -0.212     54.519   3784.787   3886.467   3799.290   3668.605     25.234    -14.900    206.446  15266.763
      1695     302.678     -0.215     54.519   3784.300   3886.349   3798.921   3667.629     25.575    -15.200    207.305  15266.765
      1700     302.699     -0.219     54.519   3783.777   3886.223   3798.525   3666.583     25.929    -15.523    208.213  15266.767
      1705     302.721     -0.223     54.519   3783.217   3886.089   3798.102   3665.460     26.299    -15.871    209.175  15266.769
      1710     302.745     -0.227     54.519   3782.615   3885.945   3797.647   3664.254     26.685    -16.246    210.194  15266.770
      1715     302.771     -0.232     54.519   3781.968   3885.791   3797.158   3662.955     27.091    -16.651    211.277  15266.772
      1720     302.798     -0.237     54.519   3781.271   3885.627   3796.630   3661.556     27.517    -17.089    212.430  15266.774
      1725     302.828     -0.243     54.519   3780.518   3885.449   3796.060   3660.044     27.966    -17.563    213.660  15266.776
      1730     302.861     -0.248     54.519   3779.703   3885.259   3795.442   3658.409     28.440    -18.078    214.976  15266.778
      1735     302.896     -0.255     54.519   3778.820   3885.053   3794.770   3656.636     28.944    -18.639    216.388  15266.780
      1740     302.935     -0.262     54.519   3777.860   3884.830   3794.039   3654.710     29.480    -19.250    217.907  15266.782
      1745     302.976     -0.269     54.519   3776.813   3884.589   3793.240   3652.610     30.052    -19.919    219.545  15266.784
      1750     303.022     -0.278     54.519   3775.668   3884.325   3792.364   3650.316     30.665    -20.653    221.319  15266.786
      1755     303.073     -0.287     54.519   3774.413   3884.038   3791.401   3647.801     31.326    -21.460    223.245  15266.788
      1760     303.128     -0.297     54.519   3773.032   3883.723   3790.337   3645.035     32.040    -22.352    225.346  15266.789
      1765     303.189     -0.308     54.519   3771.506   3883.376   3789.159   3641.981     32.816    -23.339    227.647  15266.791
      1770     303.257     -0.320     54.519   3769.812   3882.993   3787.849   3638.596     33.664    -24.438    230.178  15266.793
      1775     303.333     -0.334     54.519   3767.925   3882.567   3786.383   3634.826     34.594    -25.667    232.975  15266.795
      1780     303.418     -0.349     54.519   3765.811   3882.091   3784.735   3630.606     35.623    -27.047    236.085  15266.797
      1785     303.515     -0.367     54.519   3763.429   3881.556   3782.873   3625.856     36.767    -28.605    239.562  15266.799
      1790     303.624     -0.386     54.519   3760.728   3880.951   3780.755   3620.478     38.048    -30.376    243.475  15266.801
      1795     303.749     -0.409     54.519   3757.646   3880.263   3778.329   3614.346     39.495    -32.401    247.912  15266.803
      1800     303.893     -0.435     54.519   3754.100   3879.472   3775.527   3607.301     41.143    -34.736    252.982  15266.805
      1805     304.060     -0.465     54.519   3749.985   3878.556   3772.264   3599.137     43.038    -37.450    258.830  15266.807
      1810     304.257     -0.501     54.519   3745.164   3877.484   3768.423   3589.584     45.241    -40.635    265.642  15266.809
      1815     304.492     -0.543     54.519   3739.451   3876.215   3763.853   3578.285     47.833    -44.413    273.669  15266.810
      1820     304.775     -0.595     54.519   3732.595   3874.694   3758.340   3564.751     50.925    -48.950    283.253  15266.812
      1825     305.122     -0.657     54.519   3724.248   3872.844   3751.591   3548.308     54.671    -54.478    294.867  15266.814
      1830     305.554     -0.735     54.519   3713.910   3870.553   3743.179   3527.998     59.293    -61.325    309.187  15266.816
      1835     306.107     -0.835     54.519   3700.854   3867.662   3732.474   3502.425     65.116    -69.969    327.206  15266.818
      1840     306.831     -0.966     54.520   3683.978   3863.924   3718.509   3469.501     72.636    -81.132    350.423  15266.820
      1845     307.811     -1.143     54.520   3661.567   3858.959   3699.746   3425.996     82.634    -95.935    381.189  15266.822
      1850     309.195     -1.394     54.520   3630.858   3852.150   3673.628   3366.795     96.390   -116.171    423.322  15266.824
      1855     311.252     -1.765     54.520   3587.311   3842.472   3635.742   3283.718    116.072   -144.766    483.204  15266.826
      1860     314.521     -2.356     54.521   3523.799   3828.286   3578.360   3164.750    145.334   -186.235    571.300  15266.828
      1865     320.173     -3.377     54.522   3433.790   3807.885   3490.036   3003.449    188.930   -244.325    699.833  15266.830
      1870     330.701     -5.279     54.523   3366.888   3790.822   3386.145   2923.698    233.972   -284.355    820.005  15266.831
      1875     344.269     -7.778     54.478   4229.339   3966.713   3876.441   4844.864    -60.049    297.221   -153.740  15266.833
      1880     303.982     -0.329     54.641  10104.026   5226.988   8617.068  16468.022  -2506.039   4125.743  -7591.359  15266.835
      1885     344.223     -7.766     54.482   4146.810   3970.267   4351.370   4118.793   -189.200    185.474   -322.141  15266.837
      1890     330.340     -5.214     54.523   3364.339   3798.581   3587.015   2707.422    173.381   -306.901    718.592  15266.839
      1895     320.039     -3.352     54.522   3434.525   3812.102   3579.351   2912.121    161.217   -251.922    650.247  15266.841
      1900     314.518     -2.355     54.521   3523.013   3830.590   3620.458   3117.992    131.917   -189.367    545.372  15266.843
      1905     311.330     -1.779     54.520   3584.994   3843.764   3653.690   3257.527    109.982   -145.921    469.310  15266.845
      1910     309.332     -1.418     54.520   3627.238   3852.858   3677.181   3351.676     94.631   -116.219    416.304  15266.847
      1915     307.998     -1.177     54.520   3656.790   3859.304   3693.622   3417.443     83.741    -95.261    378.474  15266.849
      1920     307.062     -1.008     54.520   3678.115   3864.027   3705.221   3465.096     75.819    -79.938    350.596  15266.851
      1925     306.380     -0.885     54.519   3693.929   3867.594   3713.443   3500.750     69.918    -68.368    329.424  15266.852
      1930     305.871     -0.793     54.519   3705.917   3870.360   3719.231   3528.161     65.439    -59.387    312.914  15266.854
      1935     305.482     -0.722     54.519   3715.159   3872.555   3723.201   3549.720     61.991    -52.246    299.741  15266.856
      1940     305.181     -0.668     54.519   3722.365   3874.331   3725.757   3567.006     59.315    -46.452    289.018  15266.858
      1945     304.946     -0.625     54.519   3728.017   3875.792   3727.169   3581.092     57.234    -41.666    280.134  15266.860
      1950     304.763     -0.592     54.519   3732.450   3877.010   3727.612   3592.729     55.625    -37.648    272.657  15266.862
      1955     304.620     -0.567     54.519   3735.899   3878.038   3727.202   3602.457     54.402    -34.228    266.271  15266.864
      1960     304.512     -0.547     54.519   3738.530   3878.916   3726.003   3610.670     53.506    -31.279    260.742  15266.866
      1965     304.433     -0.533     54.519   3740.461   3879.671   3724.046   3617.666     52.893    -28.704    255.891  15266.868
      1970     304.379     -0.523     54.519   3741.774   3880.326   3721.329   3623.667     52.536    -26.429    251.581  15266.870
      1975     304.348     -0.517     54.519   3742.522   3880.895   3717.822   3628.848     52.419    -24.398    247.698  15266.872
      1980     304.339     -0.516     54.519   3742.734   3881.393   3713.466   3633.342     52.535    -22.564    244.152  15266.873
      1985     304.351     -0.518     54.519   3742.419   3881.826   3708.172   3637.258     52.887    -20.888    240.866  15266.875
      1990     304.386     -0.524     54.519   3741.566   3882.202   3701.815   3640.681     53.486    -19.338    237.770  15266.877
      1995     304.443     -0.535     54.519   3740.142   3882.525   3694.224   3643.678     54.355    -17.887    234.802  15266.879
      2000     304.527     -0.550     54.519   3738.091   3882.795   3685.174   3646.305     55.527    -16.508    231.901  15266.881
      2005     304.640     -0.570     54.519   3735.328   3883.012   3674.365   3648.607     57.051    -15.179    229.003  15266.883
      2010     304.787     -0.597     54.519   3731.728   3883.170   3661.394   3650.619     58.996    -13.875    226.039  15266.885
      2015     304.977     -0.631     54.519   3727.117   3883.262   3645.720   3652.369     61.459    -12.569    222.930  15266.887
      2020     305.220     -0.675     54.519   3721.250   3883.273   3626.596   3653.880     64.575    -11.234    219.576  15266.889
      2025     305.530     -0.731     54.519   3713.775   3883.181   3602.978   3655.165     68.538     -9.832    215.852  15266.891
      2030     305.932     -0.804     54.519   3704.185   3882.949   3573.370   3656.234     73.632     -8.317    211.585  15266.893
      2035     306.459     -0.899     54.520   3691.728   3882.522   3535.574   3657.087     80.277     -6.626    206.534  15266.894
      2040     307.166     -1.027     54.520   3675.258   3881.806   3486.254   3657.713     89.130     -4.667    200.349  15266.896
      2045     308.141     -1.203     54.520   3652.974   3880.645   3420.184   3658.092    101.240     -2.299    192.498  15266.898
      2050     309.539     -1.456     54.520   3621.952   3878.762   3328.910   3658.185    118.373      0.703    182.167  15266.900
      2055     311.649     -1.837     54.520   3577.365   3875.641   3198.503   3657.951    143.626      4.712    168.125  15266.902
      2060     315.051     -2.452     54.521   3511.644   3870.272   3007.233   3657.426    182.545     10.345    148.866  15266.904
      2065     321.021     -3.530     54.522   3418.648   3860.747   2737.884   3657.312    243.732     18.365    125.600  15266.906
      2070     332.238     -5.557     54.523   3364.508   3846.224   2583.594   3663.707    316.765     26.050    133.893  15266.908
      2075     344.303     -7.802     54.460   4540.493   3892.279   5990.152   3739.048    -79.611    -32.589    639.548  15266.910
      2080     305.603     -0.654     54.609   9938.768   4384.641  21500.727   3930.935  -2871.315   -351.173   2378.630  15266.912
      2085     343.744     -7.667     54.494   3900.177   3977.055   4074.386   3649.089   -198.944     -9.333    159.109  15266.914
      2090     328.925     -4.958     54.523   3358.627   3896.871   2539.522   3639.488    157.227     21.618     32.569  15266.915
      2095     319.222     -3.205     54.522   3443.870   3887.387   2796.818   3647.406    153.911     15.668     85.926  15266.917
      2100     314.011     -2.264     54.520   3531.355   3886.474   3055.048   3652.542    127.989      9.739    126.600  15266.919
      2105     310.969     -1.714     54.520   3591.832   3886.828   3233.135   3655.534    107.007      5.580    152.900  15266.921
      2110     309.043     -1.366     54.520   3633.201   3887.299   3355.017   3657.288     91.669      2.686    170.375  15266.923
      2115     307.741     -1.131     54.520   3662.381   3887.696   3441.145   3658.303     80.416      0.613    182.528  15266.925
      2120     306.816     -0.964     54.520   3683.672   3888.003   3504.168   3658.846     71.974     -0.922    191.353  15266.927
      2125     306.133     -0.840     54.520   3699.683   3888.236   3551.746   3659.068     65.488     -2.093    198.005  15266.929
      2130     305.613     -0.746     54.519   3712.036   3888.414   3588.639   3659.055     60.396     -3.009    203.187  15266.931
      2135     305.208     -0.673     54.519   3721.773   3888.553   3617.906   3658.861     56.321     -3.743    207.340  15266.933
      2140     304.884     -0.614     54.519   3729.587   3888.662   3641.580   3658.520     53.008     -4.344    210.757  15266.935
      2145     304.623     -0.567     54.519   3735.952   3888.749   3661.054   3658.053     50.278     -4.845    213.633  15266.936
      2150     304.408     -0.528     54.519   3741.201   3888.820   3677.308   3657.474     48.003     -5.271    216.107  15266.938
      2155     304.229     -0.496     54.519   3745.573   3888.879   3691.049   3656.792     46.090     -5.640    218.277  15266.940
      2160     304.080     -0.469     54.519   3749.245   3888.927   3702.796   3656.012     44.470     -5.966    220.217  15266.942
      2165     303.954     -0.446     54.519   3752.348   3888.968   3712.940   3655.137     43.091     -6.259    221.981  15266.944
      2170     303.848     -0.427     54.519   3754.984   3889.003   3721.779   3654.168     41.911     -6.526    223.610  15266.946
      2175     303.757     -0.410     54.519   3757.227   3889.032   3729.544   3653.105     40.899     -6.775    225.137  15266.948
      2180     303.680     -0.397     54.519   3759.139   3889.056   3736.416   3651.945     40.032     -7.011    226.589  15266.950
      2185     303.615     -0.385     54.519   3760.767   3889.076   3742.539   3650.685     39.288     -7.239    227.985  15266.952
      2190     303.559     -0.375     54.519   3762.148   3889.092   3748.029   3649.321     38.652     -7.462    229.345  15266.954
      2195     303.513     -0.366     54.519   3763.311   3889.105   3752.981   3647.848     38.112     -7.684    230.682  15266.956
      2200     303.474     -0.359     54.519   3764.281   3889.114   3757.470   3646.258     37.658     -7.908    232.009  15266.957
      2205     303.442     -0.353     54.519   3765.075   3889.119   3761.562   3644.545     37.279     -8.137    233.338  15266.959
      2210     303.417     -0.349     54.519   3765.710   3889.120   3765.310   3642.699     36.971     -8.373    234.679  15266.961
      2215     303.397     -0.345     54.519   3766.195   3889.118   3768.758   3640.710     36.726     -8.620    236.041  15266.963
      2220     303.384     -0.343     54.519   3766.541   3889.112   3771.944   3638.566     36.541     -8.879    237.434  15266.965
      2225     303.375     -0.341     54.519   3766.752   3889.103   3774.900   3636.252     36.412     -9.154    238.868  15266.967
      2230     303.372     -0.341     54.519   3766.832   3889.089   3777.655   3633.754     36.336     -9.448    240.350  15266.969
      2235     303.374     -0.341     54.519   3766.784   3889.071   3780.231   3631.051     36.311     -9.763    241.892  15266.971
      2240     303.382     -0.343     54.519   3766.607   3889.049   3782.650   3628.123     36.336    -10.103    243.502  15266.973
      2245     303.394     -0.345     54.519   3766.299   3889.021   3784.930   3624.945     36.409    -10.472    245.193  15266.975
      2250     303.413     -0.348     54.519   3765.854   3888.989   3787.086   3621.488     36.530    -10.874    246.976  15266.977
      2255     303.436     -0.352     54.519   3765.266   3888.951   3789.132   3617.717     36.701    -11.313    248.865  15266.978
      2260     303.466     -0.358     54.519   3764.526   3888.906   3791.080   3613.593     36.921    -11.797    250.874  15266.980
      2265     303.503     -0.365     54.519   3763.621   3888.855   3792.941   3609.066     37.192    -12.329    253.023  15266.982
      2270     303.547     -0.373     54.519   3762.534   3888.796   3794.724   3604.082     37.518    -12.920    255.331  15266.984
      2275     303.600     -0.382     54.519   3761.246   3888.729   3796.437   3598.571     37.900    -13.577    257.823  15266.986
      2280     303.661     -0.393     54.519   3759.731   3888.652   3798.088   3592.451     38.344    -14.312    260.526  15266.988
      2285     303.733     -0.406     54.519   3757.956   3888.565   3799.683   3585.621     38.855    -15.138    263.477  15266.990
      2290     303.818     -0.421     54.519   3755.883   3888.464   3801.227   3577.957     39.439    -16.071    266.717  15266.992
      2295     303.917     -0.439     54.519   3753.459   3888.349   3802.724   3569.305     40.107    -17.132    270.297  15266.994
      2300     304.033     -0.460     54.519   3750.621   3888.217   3804.175   3559.470     40.868    -18.347    274.282  15266.996
      2305     304.169     -0.485     54.519   3747.284   3888.063   3805.583   3548.205     41.738    -19.749    278.753  15266.997
      2310     304.331     -0.514     54.519   3743.340   3887.884   3806.946   3535.190     42.735    -21.380    283.812  15266.999
      2315     304.525     -0.549     54.519   3738.646   3887.673   3808.261   3520.006     43.883    -23.297    289.593  15267.001
      2320     304.758     -0.591     54.519   3733.011   3887.421   3809.521   3502.092     45.214    -25.574    296.272  15267.003
      2325     305.043     -0.643     54.519   3726.173   3887.117   3810.714   3480.688     46.770    -28.316    304.084  15267.005
      2330     305.395     -0.707     54.520   3717.766   3886.744   3811.823   3454.733     48.610    -31.666    313.353  15267.007
      2335     305.839     -0.787     54.520   3707.271   3886.277   3812.820   3422.715     50.817    -35.832    324.528  15267.009
      2340     306.409     -0.890     54.520   3693.923   3885.680   3813.669   3382.420     53.507    -41.122    338.253  15267.011
      2345     307.162     -1.026     54.520   3676.570   3884.894   3814.324   3330.491     56.856    -48.008    355.472  15267.013
      2350     308.189     -1.212     54.520   3653.413   3883.824   3814.741   3261.675     61.130    -57.241    377.596  15267.015
      2355     309.646     -1.475     54.520   3621.568   3882.308   3814.944   3167.454     66.749    -70.071    406.751  15267.017
      2360     311.827     -1.869     54.520   3576.352   3880.054   3815.296   3033.706     74.384    -88.659    446.007  15267.018
      2365     315.317     -2.500     54.521   3510.733   3876.522   3817.706   2837.971     85.033   -116.769    498.571  15267.020
      2370     321.385     -3.596     54.522   3420.770   3870.801   3831.973   2559.535     99.349   -159.716    557.974  15267.022
      2375     332.582     -5.620     54.522   3383.451   3863.327   3919.458   2367.567    107.911   -205.839    514.686  15267.024
      2380     343.693     -7.690     54.462   4620.236   3895.146   4590.950   5374.613    -38.639    104.162   -906.046  15267.026
      2385     308.936     -1.271     54.595   9546.831   4138.949   5774.071  18727.472   -604.331   1917.626  -4982.366  15267.028
      2390     343.364     -7.597     54.495   3932.078   3921.808   3731.024   4143.401     66.699    136.704    493.196  15267.030
      2395     329.119     -4.993     54.523   3370.035   3881.491   3688.569   2540.047    116.628   -118.645    791.245  15267.032
      2400     319.495     -3.254     54.522   3445.137   3877.758   3757.040   2700.612     98.564   -118.836    630.543  15267.034
      2405     314.254     -2.308     54.520   3529.878   3877.981   3799.055   2912.599     83.031   -101.289    509.195  15267.036
      2410     311.171     -1.751     54.520   3589.714   3878.534   3823.350   3067.258     72.243    -86.756    429.803  15267.038
      2415     309.208     -1.396     54.520   3631.090   3878.950   3838.004   3176.315     64.646    -76.081    376.326  15267.039
      2420     307.875     -1.155     54.520   3660.486   3879.198   3847.243   3255.016     59.089    -68.258    338.662  15267.041
      2425     306.925     -0.983     54.520   3682.057   3879.313   3853.272   3313.586     54.875    -62.418    311.039  15267.043
      2430     306.221     -0.856     54.520   3698.359   3879.328   3857.300   3358.450     51.579    -57.965    290.077  15267.045
      2435     305.683     -0.759     54.520   3710.997   3879.267   3860.029   3393.695     48.937    -54.505    273.716  15267.047
      2440     305.261     -0.682     54.520   3721.007   3879.148   3861.883   3421.990     46.773    -51.772    260.642  15267.049
      2445     304.924     -0.621     54.520   3729.082   3878.983   3863.130   3445.131     44.971    -49.586    249.987  15267.051
      2450     304.649     -0.572     54.520   3735.696   3878.780   3863.946   3464.363     43.449    -47.819    241.159  15267.053
      2455     304.422     -0.531     54.520   3741.187   3878.546   3864.450   3480.566     42.148    -46.383    233.740  15267.055
      2460     304.232     -0.496     54.519   3745.796   3878.283   3864.723   3494.382     41.027    -45.210    227.430  15267.057
      2465     304.072     -0.467     54.519   3749.702   3877.995   3864.823   3506.287     40.052    -44.253    222.006  15267.059
      2470     303.936     -0.443     54.519   3753.038   3877.683   3864.792   3516.639     39.200    -43.475    217.303  15267.060
      2475     303.819     -0.422     54.519   3755.907   3877.348   3864.660   3525.713     38.451    -42.848    213.191  15267.062
      2480     303.718     -0.403     54.519   3758.388   3876.991   3864.450   3533.722     37.792    -42.350    209.572  15267.064
      2485     303.630     -0.387     54.519   3760.542   3876.612   3864.178   3540.837     37.209    -41.966    206.368  15267.066
      2490     303.554     -0.374     54.519   3762.420   3876.211   3863.859   3547.190     36.694    -41.681    203.516  15267.068
      2495     303.488     -0.362     54.519   3764.060   3875.787   3863.501   3552.891     36.239    -41.486    200.967  15267.070
      2500     303.430     -0.351     54.519   3765.493   3875.339   3863.112   3558.027     35.837    -41.374    198.681  15267.072
      2505     303.379     -0.342     54.519   3766.745   3874.866   3862.699   3562.671     35.485    -41.338    196.622  15267.074
      2510     303.335     -0.334     54.519   3767.838   3874.368   3862.266   3566.881     35.177    -41.374    194.765  15267.076
      2515     303.296     -0.327     54.519   3768.789   3873.842   3861.817   3570.707     34.911    -41.478    193.085  15267.078
      2520     303.263     -0.321     54.519   3769.610   3873.286   3861.355   3574.191     34.683    -41.649    191.564  15267.080
      2525     303.235     -0.316     54.519   3770.315   3872.699   3860.881   3577.365     34.492    -41.885    190.186  15267.081
      2530     303.211     -0.312     54.519   3770.912   3872.079   3860.398   3580.260     34.336    -42.187    188.937  15267.083
      2535     303.191     -0.308     54.519   3771.409   3871.422   3859.907   3582.898     34.213    -42.553    187.805  15267.085
      2540     303.174     -0.305     54.519   3771.811   3870.726   3859.409   3585.300     34.124    -42.986    186.782  15267.087
      2545     303.162     -0.303     54.519   3772.124   3869.987   3858.904   3587.482     34.066    -43.488    185.858  15267.089
      2550     303.152     -0.301     54.519   3772.351   3869.202   3858.394   3589.457     34.040    -44.061    185.027  15267.091
      2555     303.147     -0.300     54.519   3772.494   3868.366   3857.878   3591.237     34.047    -44.709    184.284  15267.093
      2560     303.144     -0.300     54.519   3772.554   3867.475   3857.357   3592.830     34.086    -45.435    183.624  15267.095
      2565     303.145     -0.300     54.520   3772.531   3866.522   3856.829   3594.242     34.159    -46.246    183.043  15267.097
      2570     303.149     -0.300     54.520   3772.425   3865.502   3856.297   3595.475     34.266    -47.148    182.539  15267.099
      2575     303.157     -0.302     54.520   3772.233   3864.407   3855.757   3596.534     34.410    -48.148    182.109  15267.101
      2580     303.168     -0.304     54.520   3771.952   3863.229   3855.211   3597.416     34.592    -49.254    181.753  15267.102
      2585     303.183     -0.307     54.520   3771.579   3861.959   3854.657   3598.119     34.814    -50.478    181.470  15267.104
      2590     303.202     -0.310     54.520   3771.106   3860.585   3854.095   3598.639     35.081    -51.831    181.261  15267.106
      2595     303.225     -0.314     54.520   3770.528   3859.095   3853.523   3598.967     35.395    -53.327    181.128  15267.108
      2600     303.253     -0.319     54.520   3769.835   3857.472   3852.939   3599.093     35.761    -54.984    181.072  15267.110
      2605     303.286     -0.325     54.520   3769.015   3855.700   3852.343   3599.003     36.184    -56.821    181.099  15267.112
      2610     303.325     -0.332     54.520   3768.056   3853.757   3851.731   3598.679     36.671    -58.861    181.213  15267.114
      2615     303.370     -0.340     54.520   3766.939   3851.618   3851.102   3598.098     37.230    -61.134    181.419  15267.116
      2620     303.422     -0.350     54.520   3765.646   3849.253   3850.451   3597.232     37.870    -63.673    181.728  15267.118
      2625     303.482     -0.361     54.520   3764.149   3846.625   3849.777   3596.044     38.604    -66.519    182.150  15267.120
      2630     303.552     -0.373     54.520   3762.418   3843.690   3849.073   3594.491     39.445    -69.723    182.699  15267.122
      2635     303.633     -0.388     54.520   3760.414   3840.392   3848.335   3592.515     40.410    -73.346    183.391  15267.123
      2640     303.728     -0.405     54.520   3758.088   3836.662   3847.556   3590.045     41.524    -77.465    184.249  15267.125
      2645     303.838     -0.425     54.520   3755.377   3832.416   3846.725   3586.990     42.812    -82.178    185.301  15267.127
      2650     303.967     -0.448     54.520   3752.203   3827.542   3845.833   3583.232     44.311    -87.608    186.583  15267.129
      2655     304.120     -0.476     54.520   3748.461   3821.900   3844.865   3578.620     46.068    -93.912    188.143  15267.131
      2660     304.302     -0.509     54.520   3744.018   3815.305   3843.801   3572.949     48.141   -101.300    190.043  15267.133
      2665     304.522     -0.549     54.520   3738.692   3807.511   3842.617   3565.949     50.611   -110.048    192.367  15267.135
      2670     304.789     -0.597     54.520   3732.236   3798.183   3841.277   3557.247     53.587   -120.532    195.229  15267.137
      2675     305.119     -0.657     54.520   3724.307   3786.863   3839.735   3546.324     57.221   -133.273    198.790  15267.139
      2680     305.534     -0.732     54.520   3714.417   3772.897   3837.921   3532.433     61.725   -149.008    203.276  15267.141
      2685     306.066     -0.828     54.520   3701.851   3755.341   3835.736   3514.476     67.410   -168.817    209.021  15267.143
      2690     306.768     -0.955     54.520   3685.533   3732.788   3833.032   3490.779     74.742   -194.320    216.533  15267.144
      2695     307.721     -1.127     54.520   3663.785   3703.081   3829.576   3458.698     84.439   -228.034    226.605  15267.146
      2700     309.068     -1.370     54.520   3633.911   3662.845   3824.993   3413.896     97.643   -274.004    240.523  15267.148
      2705     311.071     -1.733     54.520   3591.489   3606.795   3818.671   3349.000    116.186   -338.873    260.444  15267.150
      2710     314.252     -2.307     54.521   3529.547   3527.547   3809.640   3251.454    142.826   -433.189    289.919  15267.152
      2715     319.736     -3.298     54.522   3441.297   3423.043   3796.927   3103.923    179.550   -567.817    333.284  15267.154
      2720     329.939     -5.141     54.523   3369.492   3383.316   3786.202   2938.960    203.500   -684.123    376.517  15267.156
      2725     343.953     -7.714     54.484   4111.435   4684.182   3885.241   3764.882   -156.389    355.574     89.682  15267.158
      2730     304.197     -0.372     54.638  10064.988  13253.807   4691.604  12249.553  -2786.584   8893.120  -2527.415  15267.160
      2735     344.102     -7.750     54.475   4285.728   4281.581   3909.170   4666.434   -136.500    628.361    -90.861  15267.162
      2740     330.819     -5.301     54.523   3372.182   3135.689   3785.458   3195.398    239.572   -671.996    335.242  15267.164
      2745     320.193     -3.380     54.522   3435.462   3301.630   3794.065   3210.692    198.753   -572.627    317.631  15267.165
      2750     314.488     -2.350     54.521   3525.454   3463.610   3806.185   3306.566    153.020   -437.314    282.109  15267.167
      2755     311.195     -1.755     54.520   3589.139   3571.744   3814.667   3381.005    121.617   -341.351    255.937  15267.169
      2760     309.127     -1.381     54.520   3632.775   3643.965   3820.386   3433.973    100.321   -275.200    237.655  15267.171
      2765     307.739     -1.130     54.520   3663.498   3694.039   3824.325   3472.131     85.390   -228.283    224.610  15267.173
      2770     306.758     -0.953     54.520   3685.876   3730.111   3827.111   3500.405     74.531   -193.839    215.008  15267.175
      2775     306.035     -0.822     54.520   3702.689   3756.975   3829.129   3521.964     66.373   -167.744    207.725  15267.177
      2780     305.485     -0.723     54.520   3715.667   3777.551   3830.617   3538.834     60.072   -147.429    202.056  15267.179
      2785     305.055     -0.645     54.520   3725.917   3793.686   3831.727   3552.339     55.091   -131.242    197.542  15267.181
      2790     304.712     -0.583     54.520   3734.172   3806.590   3832.560   3563.366     51.074   -118.087    193.880  15267.183
      2795     304.433     -0.532     54.520   3740.932   3817.085   3833.187   3572.525     47.781   -107.214    190.858  15267.185
      2800     304.202     -0.491     54.520   3746.550   3825.744   3833.656   3580.248     45.041    -98.093    188.331  15267.186
      2805     304.008     -0.456     54.520   3751.276   3832.977   3834.003   3586.848     42.732    -90.344    186.189  15267.188
      2810     303.844     -0.426     54.520   3755.297   3839.084   3834.251   3592.555     40.767    -83.686    184.357  15267.190
      2815     303.703     -0.401     54.520   3758.750   3844.288   3834.422   3597.540     39.077    -77.908    182.773  15267.192
      2820     303.582     -0.379     54.520   3761.742   3848.759   3834.530   3601.938     37.613    -72.850    181.393  15267.194
      2825     303.476     -0.360     54.520   3764.354   3852.627   3834.585   3605.848     36.334    -68.387    180.182  15267.196
      2830     303.383     -0.343     54.520   3766.649   3855.994   3834.598   3609.353     35.211    -64.421    179.113  15267.198
      2835     303.301     -0.328     54.520   3768.678   3858.942   3834.574   3612.516     34.218    -60.874    178.163  15267.200
      2840     303.229     -0.315     54.520   3770.481   3861.535   3834.521   3615.388     33.336    -57.683    177.315  15267.202
      2845     303.164     -0.303     54.520   3772.093   3863.825   3834.442   3618.011     32.549    -54.798    176.554  15267.204
      2850     303.106     -0.293     54.520   3773.538   3865.855   3834.340   3620.419     31.845    -52.176    175.870  15267.205
      2855     303.053     -0.283     54.520   3774.840   3867.659   3834.220   3622.640     31.212    -49.782    175.251  15267.207
      2860     303.006     -0.275     54.520   3776.017   3869.268   3834.084   3624.698     30.641    -47.589    174.690  15267.209
      2865     302.963     -0.267     54.520   3777.084   3870.705   3833.934   3626.612     30.126    -45.571    174.180  15267.211
      2870     302.925     -0.260     54.520   3778.054   3871.991   3833.771   3628.400     29.659    -43.708    173.716  15267.213
      2875     302.889     -0.253     54.520   3778.938   3873.142   3833.597   3630.074     29.236    -41.983    173.292  15267.215
      2880     302.857     -0.248     54.520   3779.746   3874.175   3833.414   3631.648     28.852    -40.381    172.903  15267.217
      2885     302.827     -0.242     54.520   3780.485   3875.100   3833.223   3633.131     28.503    -38.889    172.548  15267.219
[...]
      9310     303.831     -0.422     54.522   3755.201   3827.071   3841.277   3597.256     28.712      2.567    195.795  15269.671
      9315     303.935     -0.440     54.522   3752.623   3827.388   3840.607   3589.873     29.077      2.408    198.264  15269.673
      9320     304.052     -0.461     54.522   3749.727   3827.734   3839.833   3581.614     29.451      2.354    201.072  15269.675
      9325     304.185     -0.485     54.522   3746.455   3828.115   3838.933   3572.319     29.833      2.427    204.285  15269.677
      9330     304.336     -0.513     54.522   3742.733   3828.537   3837.879   3561.784     30.219      2.657    207.986  15269.679
      9335     304.509     -0.544     54.522   3738.465   3829.009   3836.637   3549.747     30.603      3.085    212.279  15269.681
      9340     304.711     -0.581     54.522   3733.525   3829.540   3835.161   3535.873     30.980      3.762    217.302  15269.682
      9345     304.948     -0.623     54.522   3727.749   3830.142   3833.390   3519.714     31.337      4.757    223.237  15269.684
      9350     305.229     -0.674     54.522   3720.915   3830.829   3831.239   3500.676     31.661      6.164    230.328  15269.686
      9355     305.569     -0.736     54.522   3712.718   3831.618   3828.594   3477.943     31.925      8.118    238.909  15269.688
      9360     305.986     -0.811     54.522   3702.731   3832.529   3825.289   3450.374     32.093     10.806    249.454  15269.690
      9365     306.508     -0.906     54.522   3690.335   3833.590   3821.081   3416.332     32.104     14.510    262.645  15269.692
      9370     307.179     -1.027     54.522   3674.613   3834.830   3815.603   3373.406     31.862     19.658    279.501  15269.694
      9375     308.068     -1.187     54.522   3654.163   3836.286   3808.276   3317.928     31.198     26.934    301.594  15269.696
      9380     309.288     -1.408     54.522   3626.765   3837.993   3798.148   3244.153     29.814     37.486    331.443  15269.698
      9385     311.044     -1.725     54.522   3588.815   3839.970   3783.587   3142.889     27.140     53.361    373.238  15269.700
      9390     313.730     -2.211     54.523   3534.516   3842.158   3761.673   2999.717     22.016     78.471    434.087  15269.702
      9395     318.162     -3.011     54.523   3456.216   3844.212   3727.275   2797.162     11.888    120.842    525.113  15269.703
      9400     326.136     -4.452     54.525   3362.265   3844.753   3675.088   2566.952     -8.936    196.724    649.666  15269.705
      9405     340.152     -6.994     54.517   3517.840   3840.051   3663.218   3050.249    -43.402    306.471    596.370  15269.707
      9410     328.724     -5.012     54.432   7287.152   3888.716   4814.171  13158.568    190.048   -379.169  -2812.767  15269.709
      9415     336.157     -6.369     54.420   6283.897   4033.137   4915.610   9902.944    486.503  -1029.270  -2378.441  15269.711
      9420     338.269     -6.650     54.521   3439.123   3909.729   3840.004   2567.636    127.876   -101.382    425.852  15269.713
      9425     325.053     -4.256     54.525   3366.733   3865.830   3750.781   2483.588     58.388     26.742    548.841  15269.715
      9430     317.778     -2.942     54.523   3459.523   3845.972   3756.125   2776.473     39.969     40.473    476.923  15269.717
      9435     313.737     -2.212     54.523   3532.023   3833.910   3767.677   2994.482     32.695     36.209    412.732  15269.719
      9440     311.302     -1.772     54.522   3581.344   3825.213   3776.686   3142.133     28.915     28.910    366.412  15269.721
      9445     309.733     -1.489     54.522   3615.103   3818.246   3782.946   3244.118     26.564     21.460    333.124  15269.722
      9450     308.672     -1.297     54.522   3638.755   3812.258   3787.113   3316.895     24.924     14.393    308.593  15269.724
      9455     307.931     -1.163     54.522   3655.659   3806.842   3789.744   3370.390     23.693      7.715    290.003  15269.726
      9460     307.403     -1.067     54.522   3667.875   3801.748   3791.218   3410.659     22.722      1.315    275.561  15269.728
      9465     307.025     -0.999     54.522   3676.697   3796.804   3791.780   3441.508     21.930     -4.935    264.105  15269.730
      9470     306.759     -0.951     54.522   3682.956   3791.878   3791.584   3465.406     21.268    -11.158    254.865  15269.732
      9475     306.579     -0.918     54.522   3687.193   3786.860   3790.721   3483.997     20.704    -17.466    247.319  15269.734
      9480     306.470     -0.899     54.522   3689.761   3781.646   3789.238   3498.401     20.217    -23.972    241.105  15269.736
      9485     306.421     -0.890     54.522   3690.886   3776.133   3787.144   3509.380     19.792    -30.788    235.969  15269.738
      9490     306.427     -0.891     54.522   3690.696   3770.211   3784.423   3517.453     19.417    -38.038    231.733  15269.740
      9495     306.485     -0.901     54.522   3689.245   3763.750   3781.027   3522.958     19.085    -45.861    228.275  15269.742
      9500     306.596     -0.921     54.522   3686.522   3756.600   3776.882   3526.085     18.795    -54.426    225.519  15269.743
      9505     306.763     -0.951     54.522   3682.452   3748.573   3771.880   3526.902     18.546    -63.938    223.422  15269.745
      9510     306.992     -0.993     54.522   3676.886   3739.431   3765.875   3525.351     18.347    -74.658    221.979  15269.747
      9515     307.293     -1.047     54.522   3669.591   3728.865   3758.669   3521.241     18.214    -86.930    221.224  15269.749
      9520     307.682     -1.118     54.522   3660.223   3716.458   3749.995   3514.215     18.177   -101.216    221.235  15269.751
      9525     308.180     -1.208     54.522   3648.277   3701.645   3739.493   3503.692     18.293   -118.151    222.154  15269.753
      9530     308.822     -1.324     54.522   3633.023   3683.630   3726.669   3488.770     18.656   -138.639    224.214  15269.755
      9535     309.656     -1.475     54.522   3613.381   3661.266   3710.830   3468.048     19.436   -164.002    227.791  15269.757
      9540     310.761     -1.674     54.522   3587.724   3632.859   3690.985   3439.328     20.936   -196.234    233.502  15269.759
      9545     312.263     -1.946     54.522   3553.525   3595.846   3665.668   3399.061     23.711   -238.440    242.385  15269.761
      9550     314.381     -2.329     54.522   3506.763   3546.313   3632.629   3341.347     28.817   -295.592    256.258  15269.763
      9555     317.516     -2.895     54.523   3441.003   3478.558   3588.254   3256.196     38.287   -375.628    278.457  15269.764
      9560     322.475     -3.791     54.524   3347.050   3386.981   3526.441   3127.730     55.897   -489.438    315.189  15269.766
      9565     330.981     -5.328     54.525   3224.270   3289.852   3436.720   2946.238     85.647   -632.909    375.799  15269.768
      9570     346.003     -8.047     54.522   3237.843   3480.078   3309.172   2924.278     84.788   -552.477    431.786  15269.770
      9575     349.307     -8.743     54.424   5782.379   7373.790   3334.555   6638.791   -823.855   3258.770   -393.510  15269.772
      9580     343.727     -7.711     54.447   7220.875   8430.956   3548.935   9682.733  -1902.472   5290.754  -1654.380  15269.774
      9585     368.646    -12.145     54.519   3135.753   3041.876   2909.131   3456.253   -401.034   -488.259     36.654  15269.776
      9590     368.083    -12.083     54.480   3856.591   3500.120   5006.680   3062.975    814.502   -650.689    345.944  15269.778
      9595     318.322     -2.915     54.649   9910.257   7051.451  19470.987   3208.333   7772.147   -110.359   1146.464  15269.780
      9600     355.255     -9.755     54.488   3827.668   3624.502   4590.791   3267.712    466.006   -383.639    315.722  15269.782
      9605     338.197     -6.632     54.526   3167.523   3329.598   2834.225   3338.745   -375.290   -340.581    209.054  15269.784
      9610     326.251     -4.473     54.524   3282.716   3442.577   3011.633   3393.939   -292.569   -274.017    210.311  15269.785
      9615     319.596     -3.271     54.523   3398.996   3539.463   3222.862   3434.662   -196.406   -224.141    215.200  15269.787
      9620     315.571     -2.544     54.523   3481.042   3607.622   3370.128   3465.376   -131.131   -187.402    217.975  15269.789
      9625     312.933     -2.067     54.522   3538.627   3656.142   3470.577   3489.161    -87.821   -159.657    219.218  15269.791
      9630     311.094     -1.734     54.522   3580.311   3691.820   3541.088   3508.025    -58.265   -138.151    219.588  15269.793
      9635     309.751     -1.492     54.522   3611.484   3718.875   3592.282   3523.295    -37.413   -121.104    219.472  15269.795
      9640     308.734     -1.308     54.522   3635.471   3739.932   3630.609   3535.873    -22.251   -107.337    219.088  15269.797
      9645     307.941     -1.164     54.522   3654.379   3756.679   3660.070   3546.387    -10.939    -96.047    218.554  15269.799
      9650     307.309     -1.050     54.522   3669.586   3770.240   3683.232   3555.287     -2.316    -86.669    217.938  15269.801
      9655     306.795     -0.957     54.522   3682.026   3781.385   3701.792   3562.902      4.377    -78.797    217.280  15269.803
      9660     306.370     -0.880     54.522   3692.349   3790.659   3716.911   3569.476      9.650    -72.131    216.601  15269.805
      9665     306.016     -0.816     54.522   3701.019   3798.458   3729.403   3575.197     13.857    -66.446    215.915  15269.806
      9670     305.715     -0.762     54.522   3708.377   3805.072   3739.850   3580.208     17.246    -61.572    215.228  15269.808
      9675     305.459     -0.716     54.522   3714.675   3810.723   3748.683   3584.619     20.000    -57.376    214.544  15269.810
      9680     305.239     -0.676     54.522   3720.107   3815.579   3756.220   3588.521     22.252    -53.753    213.865  15269.812
      9685     305.048     -0.641     54.522   3724.820   3819.770   3762.706   3591.983     24.101    -50.622    213.191  15269.814
      9690     304.882     -0.611     54.522   3728.930   3823.399   3768.328   3595.064     25.623    -47.916    212.522  15269.816
      9695     304.737     -0.585     54.522   3732.530   3826.548   3773.234   3597.808     26.876    -45.581    211.856  15269.818
      9700     304.609     -0.562     54.522   3735.693   3829.283   3777.539   3600.255     27.907    -43.576    211.192  15269.820
      9705     304.497     -0.542     54.522   3738.476   3831.656   3781.337   3602.436     28.751    -41.864    210.529  15269.822
      9710     304.398     -0.524     54.522   3740.929   3833.709   3784.702   3604.375     29.437    -40.418    209.864  15269.824
      9715     304.312     -0.508     54.522   3743.090   3835.478   3787.696   3606.094     29.986    -39.214    209.195  15269.826
      9720     304.235     -0.494     54.522   3744.990   3836.991   3790.369   3607.611     30.416    -38.234    208.520  15269.827
      9725     304.168     -0.482     54.522   3746.657   3838.269   3792.763   3608.939     30.743    -37.462    207.837  15269.829
      9730     304.110     -0.472     54.522   3748.112   3839.332   3794.912   3610.090     30.978    -36.886    207.143  15269.831
      9735     304.060     -0.463     54.522   3749.371   3840.194   3796.845   3611.073     31.129    -36.499    206.435  15269.833
      9740     304.016     -0.455     54.522   3750.449   3840.867   3798.587   3611.894     31.204    -36.293    205.711  15269.835
      9745     303.980     -0.448     54.522   3751.357   3841.356   3800.158   3612.558     31.208    -36.265    204.967  15269.837
      9750     303.950     -0.443     54.522   3752.104   3841.670   3801.575   3613.067     31.146    -36.414    204.199  15269.839
      9755     303.927     -0.439     54.522   3752.695   3841.808   3802.853   3613.423     31.019    -36.739    203.405  15269.841
      9760     303.909     -0.435     54.522   3753.134   3841.773   3804.005   3613.623     30.829    -37.244    202.578  15269.843
      9765     303.898     -0.433     54.522   3753.423   3841.561   3805.041   3613.666     30.577    -37.934    201.715  15269.845
      9770     303.893     -0.432     54.522   3753.561   3841.167   3805.969   3613.545     30.261    -38.817    200.809  15269.847
      9775     303.894     -0.433     54.522   3753.545   3840.584   3806.797   3613.253     29.880    -39.903    199.854  15269.848
      9780     303.901     -0.434     54.522   3753.370   3839.799   3807.531   3612.781     29.429    -41.206    198.844  15269.850
      9785     303.915     -0.436     54.522   3753.028   3838.798   3808.174   3612.113     28.904    -42.744    197.769  15269.852
      9790     303.936     -0.440     54.522   3752.509   3837.561   3808.731   3611.235     28.298    -44.538    196.619  15269.854
      9795     303.965     -0.445     54.522   3751.797   3836.064   3809.202   3610.125     27.603    -46.614    195.383  15269.856
      9800     304.003     -0.452     54.522   3750.874   3834.277   3809.588   3608.756     26.808    -49.007    194.046  15269.858
      9805     304.050     -0.461     54.522   3749.715   3832.161   3809.889   3607.096     25.900    -51.756    192.592  15269.860
      9810     304.108     -0.471     54.522   3748.291   3829.669   3810.101   3605.105     24.861    -54.912    191.001  15269.862
      9815     304.178     -0.484     54.522   3746.563   3826.739   3810.220   3602.730     23.669    -58.537    189.246  15269.864
      9820     304.263     -0.499     54.522   3744.482   3823.297   3810.239   3599.909     22.297    -62.711    187.298  15269.866
      9825     304.365     -0.518     54.522   3741.984   3819.245   3810.147   3596.560     20.711    -67.532    185.118  15269.868
      9830     304.488     -0.540     54.522   3738.989   3814.458   3809.931   3592.578     18.864    -73.128    182.656  15269.869
      9835     304.635     -0.567     54.522   3735.391   3808.774   3809.571   3587.829     16.698    -79.661    179.849  15269.871
      9840     304.814     -0.599     54.522   3731.051   3801.978   3809.041   3582.135     14.133    -87.348    176.615  15269.873
      9845     305.032     -0.638     54.522   3725.781   3793.779   3808.304   3575.258     11.065    -96.474    172.843  15269.875
      9850     305.300     -0.687     54.522   3719.323   3783.783   3807.309   3566.878      7.347   -107.431    168.386  15269.877
      9855     305.635     -0.747     54.522   3711.322   3771.433   3805.983   3556.549      2.776   -120.756    163.035  15269.879
      9860     306.059     -0.824     54.522   3701.265   3755.933   3804.220   3543.641     -2.941   -137.219    156.498  15269.881
      9865     306.607     -0.923     54.522   3688.403   3736.105   3801.861   3527.241    -10.240   -157.939    148.347  15269.883
      9870     307.333     -1.054     54.522   3671.602   3710.152   3798.663   3505.991    -19.788   -184.600    137.936  15269.885
      9875     308.326     -1.234     54.522   3649.093   3675.224   3794.235   3477.821    -32.644   -219.821    124.258  15269.887
      9880     309.739     -1.489     54.522   3618.028   3626.636   3787.923   3439.525    -50.565   -267.796    105.689  15269.889
      9885     311.856     -1.872     54.523   3573.751   3556.412   3778.597   3386.246    -76.568   -335.356     79.554  15269.890
      9890     315.246     -2.484     54.523   3509.111   3451.094   3764.275   3311.964   -115.841   -432.980     41.609  15269.892
      9895     321.145     -3.550     54.525   3418.880   3293.710   3742.102   3220.829   -175.430   -568.530    -12.137  15269.894
      9900     332.110     -5.532     54.525   3368.374   3142.067   3717.460   3245.594   -237.485   -649.638    -51.773  15269.896
      9905     344.302     -7.792     54.470   4460.885   4421.876   3870.653   5090.125    205.154    887.748    480.190  15269.898
      9910     306.588     -0.822     54.620   9829.814  12339.690   4950.574  12199.178   3129.800   8419.066   3267.194  15269.900
      9915     343.946     -7.704     54.494   3986.910   4442.415   3923.876   3594.439    281.958    166.169    289.270  15269.902
      9920     329.661     -5.088     54.526   3361.738   3383.726   3767.941   2933.549   -124.574   -676.993    -35.504  15269.904
      9925     319.792     -3.305     54.524   3437.295   3423.038   3766.905   3121.943   -118.580   -549.724      5.108  15269.906
      9930     314.453     -2.341     54.523   3523.964   3516.797   3776.403   3278.692    -88.295   -415.225     52.009  15269.908
      9935     311.330     -1.777     54.523   3584.895   3588.449   3784.239   3381.997    -64.361   -321.089     85.417  15269.910
      9940     309.348     -1.418     54.522   3626.871   3639.559   3789.934   3451.120    -47.126   -255.935    108.745  15269.911
      9945     308.005     -1.176     54.522   3656.622   3676.526   3794.058   3499.281    -34.628   -209.406    125.505  15269.913
      9950     307.049     -1.003     54.522   3678.425   3704.001   3797.100   3534.173    -25.342   -175.004    137.954  15269.915
      9955     306.341     -0.875     54.522   3694.899   3724.989   3799.390   3560.317    -18.263   -148.763    147.487  15269.917
      9960     305.799     -0.777     54.522   3707.677   3741.419   3801.144   3580.468    -12.736   -128.207    154.981  15269.919
      9965     305.374     -0.700     54.522   3717.814   3754.562   3802.508   3596.372     -8.331   -111.735    161.007  15269.921
      9970     305.032     -0.638     54.522   3726.011   3765.272   3803.580   3609.180     -4.755    -98.280    165.947  15269.923
      9975     304.754     -0.588     54.522   3732.747   3774.143   3804.427   3619.672     -1.806    -87.107    170.063  15269.925
      9980     304.523     -0.546     54.522   3738.363   3781.595   3805.099   3628.395      0.662    -77.696    173.544  15269.927
      9985     304.328     -0.511     54.522   3743.102   3787.934   3805.631   3635.741      2.753    -69.672    176.525  15269.929
      9990     304.163     -0.481     54.522   3747.143   3793.385   3806.048   3641.996      4.544    -62.755    179.106  15269.930
      9995     304.022     -0.456     54.522   3750.621   3798.118   3806.370   3647.375      6.095    -56.738    181.364  15269.932
     10000     303.899     -0.433     54.522   3753.640   3802.266   3806.612   3652.041      7.449    -51.458    183.357  15269.934
Loop time of 2.09374 on 1 procs for 10000 steps with 1400 atoms

Performance: 2.063 ns/day, 11.632 hours/ns, 4776.131 timesteps/s
17.2% CPU use with 1 MPI tasks x 1 OpenMP threads

MPI task timing breakdown:
Section |  min time  |  avg time  |  max time  |%varavg| %total
---------------------------------------------------------------
Pair    | 0.93637    | 0.93637    | 0.93637    |   0.0 | 44.72
Neigh   | 0.014089   | 0.014089   | 0.014089   |   0.0 |  0.67
Comm    | 0.065232   | 0.065232   | 0.065232   |   0.0 |  3.12
Output  | 0.66113    | 0.66113    | 0.66113    |   0.0 | 31.58
Modify  | 0.36499    | 0.36499    | 0.36499    |   0.0 | 17.43
Other   |            | 0.05193    |            |       |  2.48

Nlocal:           1400 ave        1400 max        1400 min
Histogram: 1 0 0 0 0 0 0 0 0 0
Nghost:           1350 ave        1350 max        1350 min
Histogram: 1 0 0 0 0 0 0 0 0 0
Neighs:           5595 ave        5595 max        5595 min
Histogram: 1 0 0 0 0 0 0 0 0 0
FullNghs:        11188 ave       11188 max       11188 min
Histogram: 1 0 0 0 0 0 0 0 0 0

Total # of neighbors = 11188
Ave neighs/atom = 7.9914286
Neighbor list builds = 22
Dangerous builds = 0

###Write a binary restart file of the current state of the simulation
write_restart restart.deform_NVT
System init for write_restart ...
Generated 0 of 0 mixed pair_coeff terms from geometric mixing rule


Total wall time: 0:00:02
