LAMMPS (23 Jun 2022 - Update 1)
OMP_NUM_THREADS environment is not set. Defaulting to 1 thread. (src/comm.cpp:98)
  using 1 OpenMP thread(s) per MPI task
Loaded 1 plugins from C:\Users\morga\AppData\Local\LAMMPS 64-bit 23Jun2022\plugins
#### set simulation box #####
units metal ## use metal unit system - see lammps manual
boundary p p p ## make simulation box periodic along all directions
atom_style atomic ## default atom style for metals

## define crystal structure and lattice constant a0
## define direction vectors, i.e., set x=[100], y=[010], z=[001]
lattice fcc 3.52 orient x 1 0 0 orient y 0 1 0 orient z 0 0 1
Lattice spacing in x,y,z = 3.52 3.52 3.52

## region box block 0 24.64 0 24.64 0 24.64 units box ## define box sizes along x, y, z
## The above region command can also be achieve by the one below. Think about why? ###
 region box block 0 5 0 14 0 5
create_box 1 box ## create the simulation box, allowing a max of 2 species
Created orthogonal box = (0 0 0) to (17.6 49.28 17.6)
  1 by 1 by 1 MPI processor grid
create_atoms 1 box ## create type-1 metal atoms in the box
Created 1400 atoms
  using lattice units in orthogonal box = (0 0 0) to (17.6 49.28 17.6)
  create_atoms CPU = 0.001 seconds

mass 1 1.0

pair_style lj/cut 2.5  ## set interatomic potential style to be EAM
pair_coeff 1 1 7.615119557037 -0.074391647072 2.5


neighbor 0.3 bin ## define parameters for neighbor list
neigh_modify delay 5 ## define parameters for neighbor list

compute c1 all pe/atom ### compute potential energy per atom
compute c2 all cna/atom 0.5 ### compute CNA per atom
compute c3 all stress/atom	NULL ### compute stress tensor per atom

thermo 5 ## Output system information every 5 timesteps
#### Output step No., temperature, potential energy, total energy,
#### total pressure, pressure component, box volume
thermo_style custom step temp pe etotal press pxx pyy pzz pxy pxz pyz vol
thermo_modify format float %10.3f ## set output format
timestep 0.000005 ## set timestep size

### system equilibrium by NPT ensemble to relax the pressure ###
dump 1a all custom 200 dump_FCCNi_Perfect_001.atom id type x y z c_c1 c_c2 c_c3[1] c_c3[2] c_c3[3]
velocity all create 300.0 4928459 mom yes rot yes dist gaussian   ## Assign velocities to all atoms
#fix  1f all nve  ## define a NVE ensemble for the system
#define a NPT ensemble for the system
fix 1f all npt temp 600.0 600.0 0.5 iso 0.0 0.0 5.0
run  10000	## run the simulation for 10000 steps
Generated 0 of 0 mixed pair_coeff terms from geometric mixing rule
Neighbor list info ...
  update every 1 steps, delay 5 steps, check yes
  max neighbors/atom: 2000, page size: 100000
  master list distance cutoff = 2.8
  ghost atom cutoff = 2.8
  binsize = 1.4, bins = 13 36 13
  2 neighbor lists, perpetual/occasional/extra = 1 1 0
  (1) pair lj/cut, perpetual
      attributes: half, newton on
      pair build: half/bin/atomonly/newton
      stencil: half/bin/3d
      bin: standard
  (2) compute cna/atom, occasional
      attributes: full, newton on
      pair build: full/bin/atomonly
      stencil: full/bin/3d
      bin: standard
Per MPI rank memory allocation (min/avg/max) = 8.087 | 8.087 | 8.087 Mbytes
   Step          Temp          PotEng         TotEng         Press           Pxx            Pyy            Pzz            Pxy            Pxz            Pyz           Volume    
         0     300.000     -0.000     54.250   3795.966   3880.359   3830.807   3676.731     48.190      5.726    216.592  15264.973
         5     300.000     -0.000     54.250   3795.966   3880.359   3830.807   3676.731     48.190      5.726    216.592  15264.973
        10     300.000     -0.000     54.250   3795.966   3880.359   3830.807   3676.731     48.190      5.726    216.592  15264.973
        15     300.000     -0.000     54.250   3795.966   3880.359   3830.807   3676.731     48.190      5.726    216.592  15264.973
        20     300.000     -0.000     54.250   3795.966   3880.359   3830.807   3676.731     48.190      5.726    216.592  15264.973
        25     300.000     -0.000     54.250   3795.966   3880.359   3830.807   3676.731     48.190      5.726    216.592  15264.973
        30     300.000     -0.000     54.250   3795.966   3880.359   3830.808   3676.731     48.190      5.726    216.592  15264.973
        35     300.000     -0.000     54.250   3795.966   3880.360   3830.808   3676.731     48.190      5.726    216.592  15264.973
        40     300.000     -0.000     54.250   3795.966   3880.360   3830.808   3676.731     48.190      5.726    216.592  15264.973
        45     300.000     -0.000     54.250   3795.967   3880.360   3830.808   3676.732     48.190      5.726    216.592  15264.973
        50     300.000     -0.000     54.250   3795.967   3880.361   3830.809   3676.732     48.190      5.726    216.592  15264.973
        55     300.000     -0.000     54.250   3795.968   3880.361   3830.809   3676.733     48.190      5.726    216.592  15264.973
        60     300.000     -0.000     54.250   3795.968   3880.362   3830.810   3676.733     48.190      5.725    216.592  15264.973
        65     300.000     -0.000     54.250   3795.969   3880.362   3830.811   3676.734     48.190      5.725    216.592  15264.973
        70     300.000     -0.000     54.250   3795.970   3880.363   3830.811   3676.735     48.190      5.725    216.592  15264.973
        75     300.000     -0.000     54.250   3795.970   3880.364   3830.812   3676.735     48.190      5.725    216.592  15264.973
        80     300.000     -0.000     54.250   3795.971   3880.364   3830.813   3676.736     48.190      5.725    216.592  15264.973
        85     300.000     -0.000     54.250   3795.972   3880.365   3830.813   3676.737     48.190      5.725    216.592  15264.973
        90     300.000     -0.000     54.250   3795.972   3880.366   3830.814   3676.737     48.190      5.725    216.592  15264.973
        95     300.000     -0.000     54.250   3795.973   3880.367   3830.815   3676.738     48.190      5.725    216.592  15264.973
       100     300.000     -0.000     54.250   3795.974   3880.367   3830.815   3676.739     48.190      5.725    216.592  15264.973
       105     300.000     -0.000     54.250   3795.974   3880.368   3830.816   3676.739     48.190      5.725    216.592  15264.973
       110     300.000     -0.000     54.250   3795.975   3880.368   3830.817   3676.740     48.190      5.725    216.592  15264.973
       115     300.000     -0.000     54.250   3795.976   3880.369   3830.817   3676.740     48.190      5.725    216.592  15264.973
       120     300.000     -0.000     54.250   3795.976   3880.370   3830.818   3676.741     48.190      5.725    216.592  15264.973
       125     300.000     -0.000     54.250   3795.977   3880.370   3830.818   3676.742     48.190      5.725    216.592  15264.973
       130     300.000     -0.000     54.250   3795.977   3880.371   3830.819   3676.742     48.190      5.725    216.592  15264.973
       135     300.000     -0.000     54.250   3795.978   3880.371   3830.819   3676.743     48.190      5.725    216.592  15264.973
       140     300.000     -0.000     54.250   3795.978   3880.372   3830.820   3676.743     48.190      5.725    216.592  15264.973
       145     300.000     -0.000     54.250   3795.979   3880.372   3830.820   3676.744     48.190      5.725    216.592  15264.973
       150     300.000     -0.000     54.250   3795.979   3880.373   3830.821   3676.744     48.190      5.725    216.592  15264.973
       155     300.000     -0.000     54.250   3795.980   3880.373   3830.821   3676.745     48.190      5.725    216.592  15264.973
       160     300.000     -0.000     54.250   3795.980   3880.374   3830.822   3676.745     48.190      5.725    216.592  15264.973
       165     300.000     -0.000     54.250   3795.981   3880.374   3830.823   3676.746     48.190      5.725    216.592  15264.973
       170     300.000     -0.000     54.250   3795.981   3880.375   3830.823   3676.746     48.190      5.725    216.592  15264.973
       175     300.000     -0.000     54.250   3795.982   3880.376   3830.824   3676.747     48.190      5.725    216.592  15264.973
       180     300.000     -0.000     54.250   3795.982   3880.376   3830.824   3676.747     48.190      5.725    216.592  15264.973
       185     300.001     -0.000     54.250   3795.983   3880.376   3830.825   3676.748     48.190      5.725    216.592  15264.973
       190     300.001     -0.000     54.250   3795.983   3880.377   3830.825   3676.748     48.190      5.725    216.592  15264.973
       195     300.001     -0.000     54.250   3795.984   3880.378   3830.826   3676.749     48.190      5.726    216.592  15264.973
       200     300.001     -0.000     54.250   3795.985   3880.378   3830.826   3676.749     48.190      5.725    216.592  15264.973
       205     300.001     -0.000     54.250   3795.985   3880.379   3830.827   3676.750     48.190      5.726    216.592  15264.973
       210     300.001     -0.000     54.250   3795.986   3880.379   3830.827   3676.750     48.190      5.725    216.592  15264.973
       215     300.001     -0.000     54.250   3795.986   3880.380   3830.828   3676.751     48.190      5.725    216.592  15264.973
       220     300.001     -0.000     54.250   3795.987   3880.380   3830.828   3676.751     48.190      5.725    216.592  15264.973
       225     300.001     -0.000     54.250   3795.987   3880.381   3830.829   3676.752     48.190      5.725    216.592  15264.973
       230     300.001     -0.000     54.251   3795.988   3880.381   3830.829   3676.752     48.190      5.725    216.592  15264.973
       235     300.001     -0.000     54.251   3795.988   3880.382   3830.830   3676.753     48.190      5.725    216.592  15264.973
       240     300.001     -0.000     54.251   3795.989   3880.382   3830.830   3676.753     48.190      5.726    216.592  15264.973
       245     300.001     -0.000     54.251   3795.989   3880.383   3830.831   3676.754     48.190      5.726    216.592  15264.973
       250     300.001     -0.000     54.251   3795.990   3880.384   3830.832   3676.755     48.190      5.726    216.593  15264.974
       255     300.001     -0.000     54.251   3795.990   3880.384   3830.832   3676.755     48.190      5.726    216.593  15264.974
       260     300.001     -0.000     54.251   3795.991   3880.385   3830.833   3676.756     48.190      5.726    216.593  15264.974
       265     300.001     -0.000     54.251   3795.992   3880.385   3830.833   3676.756     48.190      5.726    216.593  15264.974
       270     300.001     -0.000     54.251   3795.992   3880.386   3830.834   3676.757     48.190      5.726    216.593  15264.974
       275     300.001     -0.000     54.251   3795.993   3880.387   3830.834   3676.757     48.190      5.726    216.593  15264.974
       280     300.001     -0.000     54.251   3795.993   3880.387   3830.835   3676.758     48.190      5.726    216.593  15264.974
       285     300.001     -0.000     54.251   3795.994   3880.388   3830.836   3676.759     48.190      5.726    216.593  15264.974
       290     300.001     -0.000     54.251   3795.995   3880.388   3830.836   3676.759     48.190      5.726    216.593  15264.974
       295     300.001     -0.000     54.251   3795.995   3880.389   3830.837   3676.760     48.190      5.726    216.593  15264.974
       300     300.001     -0.000     54.251   3795.996   3880.390   3830.838   3676.760     48.190      5.726    216.593  15264.974
       305     300.001     -0.000     54.251   3795.996   3880.390   3830.838   3676.761     48.190      5.726    216.593  15264.974
       310     300.001     -0.000     54.251   3795.997   3880.391   3830.839   3676.762     48.190      5.726    216.593  15264.974
       315     300.001     -0.000     54.251   3795.998   3880.392   3830.839   3676.762     48.190      5.726    216.593  15264.974
       320     300.002     -0.000     54.251   3795.998   3880.392   3830.840   3676.763     48.190      5.726    216.593  15264.974
       325     300.002     -0.000     54.251   3795.999   3880.393   3830.841   3676.763     48.190      5.726    216.593  15264.974
       330     300.002     -0.000     54.251   3796.000   3880.394   3830.841   3676.764     48.190      5.726    216.593  15264.974
       335     300.002     -0.000     54.251   3796.000   3880.394   3830.842   3676.765     48.190      5.726    216.593  15264.974
       340     300.002     -0.000     54.251   3796.001   3880.395   3830.843   3676.765     48.190      5.726    216.593  15264.974
       345     300.002     -0.000     54.251   3796.002   3880.396   3830.843   3676.766     48.190      5.726    216.593  15264.974
       350     300.002     -0.000     54.251   3796.002   3880.396   3830.844   3676.767     48.190      5.726    216.593  15264.974
       355     300.002     -0.000     54.251   3796.003   3880.397   3830.845   3676.767     48.190      5.726    216.593  15264.974
       360     300.002     -0.000     54.251   3796.004   3880.398   3830.845   3676.768     48.190      5.726    216.593  15264.974
       365     300.002     -0.000     54.251   3796.005   3880.399   3830.846   3676.769     48.190      5.726    216.593  15264.974
       370     300.002     -0.000     54.251   3796.005   3880.399   3830.847   3676.770     48.190      5.726    216.593  15264.974
       375     300.002     -0.000     54.251   3796.006   3880.400   3830.848   3676.770     48.190      5.726    216.593  15264.974
       380     300.002     -0.000     54.251   3796.007   3880.401   3830.848   3676.771     48.190      5.726    216.593  15264.974
       385     300.002     -0.000     54.251   3796.007   3880.402   3830.849   3676.772     48.190      5.726    216.593  15264.974
       390     300.002     -0.000     54.251   3796.008   3880.402   3830.850   3676.772     48.190      5.726    216.593  15264.975
       395     300.002     -0.000     54.251   3796.009   3880.403   3830.851   3676.773     48.190      5.726    216.593  15264.975
       400     300.002     -0.000     54.251   3796.010   3880.404   3830.851   3676.774     48.190      5.726    216.593  15264.975
       405     300.002     -0.000     54.251   3796.011   3880.405   3830.852   3676.775     48.190      5.726    216.594  15264.975
       410     300.003     -0.000     54.251   3796.011   3880.405   3830.853   3676.775     48.190      5.726    216.594  15264.975
       415     300.003     -0.000     54.251   3796.012   3880.406   3830.854   3676.776     48.190      5.726    216.594  15264.975
       420     300.003     -0.000     54.251   3796.013   3880.407   3830.855   3676.777     48.190      5.726    216.594  15264.975
       425     300.003     -0.000     54.251   3796.014   3880.408   3830.855   3676.778     48.190      5.726    216.594  15264.975
       430     300.003     -0.000     54.251   3796.015   3880.409   3830.856   3676.779     48.190      5.726    216.594  15264.975
       435     300.003     -0.000     54.251   3796.015   3880.410   3830.857   3676.779     48.190      5.726    216.594  15264.975
       440     300.003     -0.000     54.251   3796.016   3880.410   3830.858   3676.780     48.191      5.726    216.594  15264.975
       445     300.003     -0.000     54.251   3796.017   3880.411   3830.859   3676.781     48.191      5.726    216.594  15264.975
       450     300.003     -0.000     54.251   3796.018   3880.412   3830.860   3676.782     48.191      5.726    216.594  15264.975
       455     300.003     -0.000     54.251   3796.019   3880.413   3830.861   3676.783     48.191      5.726    216.594  15264.975
       460     300.003     -0.000     54.251   3796.020   3880.414   3830.861   3676.784     48.191      5.726    216.594  15264.975
       465     300.003     -0.000     54.251   3796.021   3880.415   3830.862   3676.784     48.191      5.726    216.594  15264.975
       470     300.003     -0.000     54.251   3796.021   3880.416   3830.863   3676.785     48.191      5.726    216.594  15264.975
       475     300.003     -0.000     54.251   3796.022   3880.417   3830.864   3676.786     48.191      5.726    216.594  15264.975
       480     300.003     -0.000     54.251   3796.023   3880.418   3830.865   3676.787     48.191      5.726    216.594  15264.975
       485     300.004     -0.000     54.251   3796.024   3880.419   3830.866   3676.788     48.191      5.726    216.594  15264.975
       490     300.004     -0.000     54.251   3796.025   3880.420   3830.867   3676.789     48.191      5.726    216.594  15264.976
       495     300.004     -0.000     54.251   3796.026   3880.421   3830.868   3676.790     48.191      5.726    216.594  15264.976
       500     300.004     -0.000     54.251   3796.027   3880.421   3830.869   3676.791     48.191      5.726    216.594  15264.976
       505     300.004     -0.000     54.251   3796.028   3880.422   3830.870   3676.792     48.191      5.726    216.594  15264.976
       510     300.004     -0.000     54.251   3796.029   3880.423   3830.871   3676.792     48.191      5.726    216.594  15264.976
       515     300.004     -0.000     54.251   3796.030   3880.424   3830.872   3676.793     48.191      5.726    216.595  15264.976
       520     300.004     -0.000     54.251   3796.031   3880.425   3830.873   3676.794     48.191      5.726    216.595  15264.976
       525     300.004     -0.000     54.251   3796.032   3880.426   3830.874   3676.795     48.191      5.726    216.595  15264.976
       530     300.004     -0.000     54.251   3796.033   3880.427   3830.875   3676.796     48.191      5.726    216.595  15264.976
       535     300.004     -0.000     54.251   3796.034   3880.428   3830.876   3676.797     48.191      5.726    216.595  15264.976
       540     300.004     -0.000     54.251   3796.035   3880.429   3830.877   3676.798     48.191      5.726    216.595  15264.976
       545     300.004     -0.000     54.251   3796.036   3880.430   3830.878   3676.799     48.191      5.726    216.595  15264.976
       550     300.005     -0.000     54.251   3796.037   3880.432   3830.879   3676.800     48.191      5.726    216.595  15264.976
       555     300.005     -0.000     54.251   3796.038   3880.433   3830.880   3676.801     48.191      5.726    216.595  15264.976
       560     300.005     -0.000     54.251   3796.039   3880.434   3830.881   3676.802     48.191      5.726    216.595  15264.976
       565     300.005     -0.000     54.251   3796.040   3880.435   3830.882   3676.803     48.191      5.726    216.595  15264.976
       570     300.005     -0.000     54.251   3796.041   3880.436   3830.883   3676.804     48.191      5.726    216.595  15264.977
       575     300.005     -0.000     54.251   3796.042   3880.437   3830.884   3676.805     48.191      5.726    216.595  15264.977
       580     300.005     -0.000     54.251   3796.043   3880.438   3830.885   3676.806     48.191      5.726    216.595  15264.977
       585     300.005     -0.000     54.251   3796.044   3880.439   3830.886   3676.807     48.191      5.726    216.595  15264.977
       590     300.005     -0.000     54.251   3796.045   3880.440   3830.887   3676.808     48.191      5.726    216.595  15264.977
       595     300.005     -0.000     54.251   3796.046   3880.441   3830.889   3676.810     48.191      5.726    216.595  15264.977
       600     300.005     -0.000     54.251   3796.048   3880.443   3830.890   3676.811     48.191      5.726    216.596  15264.977
       605     300.005     -0.000     54.251   3796.049   3880.444   3830.891   3676.812     48.191      5.726    216.596  15264.977
       610     300.006     -0.000     54.251   3796.050   3880.445   3830.892   3676.813     48.191      5.726    216.596  15264.977
       615     300.006     -0.000     54.251   3796.051   3880.446   3830.893   3676.814     48.191      5.726    216.596  15264.977
       620     300.006     -0.000     54.251   3796.052   3880.447   3830.894   3676.815     48.191      5.726    216.596  15264.977
       625     300.006     -0.000     54.251   3796.053   3880.448   3830.895   3676.816     48.191      5.726    216.596  15264.977
       630     300.006     -0.000     54.251   3796.054   3880.450   3830.897   3676.817     48.191      5.726    216.596  15264.977
       635     300.006     -0.000     54.251   3796.056   3880.451   3830.898   3676.818     48.191      5.726    216.596  15264.977
       640     300.006     -0.000     54.251   3796.057   3880.452   3830.899   3676.819     48.191      5.726    216.596  15264.977
       645     300.006     -0.000     54.251   3796.058   3880.453   3830.900   3676.821     48.191      5.726    216.596  15264.978
       650     300.006     -0.000     54.252   3796.059   3880.454   3830.901   3676.822     48.191      5.726    216.596  15264.978
       655     300.006     -0.000     54.252   3796.060   3880.456   3830.903   3676.823     48.191      5.726    216.596  15264.978
       660     300.007     -0.000     54.252   3796.062   3880.457   3830.904   3676.824     48.191      5.726    216.596  15264.978
       665     300.007     -0.000     54.252   3796.063   3880.458   3830.905   3676.825     48.191      5.726    216.596  15264.978
       670     300.007     -0.000     54.252   3796.064   3880.459   3830.906   3676.827     48.191      5.726    216.597  15264.978
       675     300.007     -0.000     54.252   3796.065   3880.461   3830.908   3676.828     48.191      5.726    216.597  15264.978
       680     300.007     -0.000     54.252   3796.067   3880.462   3830.909   3676.829     48.191      5.726    216.597  15264.978
       685     300.007     -0.000     54.252   3796.068   3880.463   3830.910   3676.830     48.191      5.726    216.597  15264.978
       690     300.007     -0.000     54.252   3796.069   3880.465   3830.911   3676.831     48.191      5.726    216.597  15264.978
       695     300.007     -0.000     54.252   3796.070   3880.466   3830.913   3676.833     48.191      5.726    216.597  15264.978
       700     300.007     -0.000     54.252   3796.072   3880.467   3830.914   3676.834     48.191      5.726    216.597  15264.978
       705     300.007     -0.000     54.252   3796.073   3880.468   3830.915   3676.835     48.191      5.726    216.597  15264.978
       710     300.008     -0.000     54.252   3796.074   3880.470   3830.917   3676.836     48.191      5.726    216.597  15264.979
       715     300.008     -0.000     54.252   3796.076   3880.471   3830.918   3676.838     48.191      5.726    216.597  15264.979
       720     300.008     -0.000     54.252   3796.077   3880.473   3830.919   3676.839     48.191      5.726    216.597  15264.979
       725     300.008     -0.000     54.252   3796.078   3880.474   3830.921   3676.840     48.191      5.726    216.597  15264.979
       730     300.008     -0.000     54.252   3796.080   3880.475   3830.922   3676.842     48.191      5.726    216.597  15264.979
       735     300.008     -0.000     54.252   3796.081   3880.477   3830.923   3676.843     48.191      5.726    216.597  15264.979
       740     300.008     -0.000     54.252   3796.082   3880.478   3830.925   3676.844     48.191      5.726    216.598  15264.979
       745     300.008     -0.000     54.252   3796.084   3880.479   3830.926   3676.846     48.191      5.726    216.598  15264.979
       750     300.008     -0.000     54.252   3796.085   3880.481   3830.927   3676.847     48.191      5.726    216.598  15264.979
       755     300.009     -0.000     54.252   3796.086   3880.482   3830.929   3676.848     48.191      5.726    216.598  15264.979
       760     300.009     -0.000     54.252   3796.088   3880.484   3830.930   3676.850     48.191      5.726    216.598  15264.979
       765     300.009     -0.000     54.252   3796.089   3880.485   3830.932   3676.851     48.191      5.726    216.598  15264.979
       770     300.009     -0.000     54.252   3796.091   3880.487   3830.933   3676.852     48.191      5.726    216.598  15264.980
       775     300.009     -0.000     54.252   3796.092   3880.488   3830.935   3676.854     48.191      5.726    216.598  15264.980
       780     300.009     -0.000     54.252   3796.094   3880.490   3830.936   3676.855     48.191      5.726    216.598  15264.980
       785     300.009     -0.000     54.252   3796.095   3880.491   3830.937   3676.857     48.191      5.726    216.598  15264.980
       790     300.009     -0.000     54.252   3796.096   3880.493   3830.939   3676.858     48.191      5.726    216.598  15264.980
       795     300.009     -0.000     54.252   3796.098   3880.494   3830.940   3676.859     48.192      5.726    216.598  15264.980
       800     300.010     -0.000     54.252   3796.099   3880.496   3830.942   3676.861     48.192      5.726    216.599  15264.980
       805     300.010     -0.000     54.252   3796.101   3880.497   3830.943   3676.862     48.192      5.726    216.599  15264.980
       810     300.010     -0.000     54.252   3796.102   3880.499   3830.945   3676.864     48.192      5.726    216.599  15264.980
       815     300.010     -0.000     54.252   3796.104   3880.500   3830.946   3676.865     48.192      5.726    216.599  15264.980
       820     300.010     -0.000     54.252   3796.105   3880.502   3830.948   3676.867     48.192      5.726    216.599  15264.980
       825     300.010     -0.000     54.252   3796.107   3880.503   3830.949   3676.868     48.192      5.726    216.599  15264.981
       830     300.010     -0.000     54.252   3796.108   3880.505   3830.951   3676.870     48.192      5.726    216.599  15264.981
       835     300.010     -0.000     54.252   3796.110   3880.506   3830.953   3676.871     48.192      5.726    216.599  15264.981
       840     300.011     -0.000     54.252   3796.112   3880.508   3830.954   3676.872     48.192      5.726    216.599  15264.981
       845     300.011     -0.000     54.252   3796.113   3880.509   3830.956   3676.874     48.192      5.726    216.599  15264.981
       850     300.011     -0.000     54.252   3796.115   3880.511   3830.957   3676.875     48.192      5.726    216.599  15264.981
       855     300.011     -0.000     54.252   3796.116   3880.513   3830.959   3676.877     48.192      5.726    216.599  15264.981
       860     300.011     -0.000     54.252   3796.118   3880.514   3830.960   3676.879     48.192      5.726    216.600  15264.981
       865     300.011     -0.000     54.252   3796.119   3880.516   3830.962   3676.880     48.192      5.726    216.600  15264.981
       870     300.011     -0.000     54.252   3796.121   3880.518   3830.964   3676.882     48.192      5.726    216.600  15264.981
       875     300.011     -0.000     54.252   3796.123   3880.519   3830.965   3676.883     48.192      5.726    216.600  15264.982
       880     300.012     -0.000     54.252   3796.124   3880.521   3830.967   3676.885     48.192      5.726    216.600  15264.982
       885     300.012     -0.000     54.252   3796.126   3880.523   3830.969   3676.886     48.192      5.726    216.600  15264.982
       890     300.012     -0.000     54.253   3796.127   3880.524   3830.970   3676.888     48.192      5.726    216.600  15264.982
       895     300.012     -0.000     54.253   3796.129   3880.526   3830.972   3676.890     48.192      5.726    216.600  15264.982
       900     300.012     -0.000     54.253   3796.131   3880.528   3830.974   3676.891     48.192      5.726    216.600  15264.982
       905     300.012     -0.000     54.253   3796.132   3880.529   3830.975   3676.893     48.192      5.726    216.600  15264.982
       910     300.012     -0.000     54.253   3796.134   3880.531   3830.977   3676.894     48.192      5.726    216.601  15264.982
       915     300.013     -0.000     54.253   3796.136   3880.533   3830.979   3676.896     48.192      5.726    216.601  15264.982
       920     300.013     -0.000     54.253   3796.137   3880.534   3830.980   3676.898     48.192      5.726    216.601  15264.982
       925     300.013     -0.000     54.253   3796.139   3880.536   3830.982   3676.899     48.192      5.726    216.601  15264.983
       930     300.013     -0.000     54.253   3796.141   3880.538   3830.984   3676.901     48.192      5.726    216.601  15264.983
       935     300.013     -0.000     54.253   3796.143   3880.540   3830.985   3676.903     48.192      5.726    216.601  15264.983
       940     300.013     -0.000     54.253   3796.144   3880.541   3830.987   3676.904     48.192      5.726    216.601  15264.983
       945     300.013     -0.000     54.253   3796.146   3880.543   3830.989   3676.906     48.192      5.726    216.601  15264.983
       950     300.014     -0.000     54.253   3796.148   3880.545   3830.991   3676.908     48.192      5.726    216.601  15264.983
       955     300.014     -0.000     54.253   3796.150   3880.547   3830.993   3676.909     48.192      5.726    216.601  15264.983
       960     300.014     -0.000     54.253   3796.151   3880.549   3830.994   3676.911     48.192      5.726    216.601  15264.983
       965     300.014     -0.000     54.253   3796.153   3880.550   3830.996   3676.913     48.192      5.726    216.602  15264.983
       970     300.014     -0.000     54.253   3796.155   3880.552   3830.998   3676.914     48.192      5.726    216.602  15264.984
       975     300.014     -0.000     54.253   3796.157   3880.554   3831.000   3676.916     48.192      5.726    216.602  15264.984
       980     300.014     -0.000     54.253   3796.158   3880.556   3831.001   3676.918     48.192      5.726    216.602  15264.984
       985     300.015     -0.000     54.253   3796.160   3880.558   3831.003   3676.920     48.192      5.726    216.602  15264.984
       990     300.015     -0.000     54.253   3796.162   3880.560   3831.005   3676.921     48.192      5.726    216.602  15264.984
       995     300.015     -0.000     54.253   3796.164   3880.561   3831.007   3676.923     48.192      5.726    216.602  15264.984
      1000     300.015     -0.000     54.253   3796.166   3880.563   3831.009   3676.925     48.192      5.726    216.602  15264.984
      1005     300.015     -0.000     54.253   3796.168   3880.565   3831.011   3676.927     48.192      5.726    216.602  15264.984
      1010     300.015     -0.000     54.253   3796.169   3880.567   3831.013   3676.929     48.192      5.726    216.603  15264.984
      1015     300.015     -0.000     54.253   3796.171   3880.569   3831.014   3676.930     48.192      5.726    216.603  15264.985
      1020     300.016     -0.000     54.253   3796.173   3880.571   3831.016   3676.932     48.192      5.726    216.603  15264.985
      1025     300.016     -0.000     54.253   3796.175   3880.573   3831.018   3676.934     48.193      5.726    216.603  15264.985
      1030     300.016     -0.000     54.253   3796.177   3880.575   3831.020   3676.936     48.193      5.726    216.603  15264.985
      1035     300.016     -0.000     54.253   3796.179   3880.577   3831.022   3676.938     48.193      5.726    216.603  15264.985
      1040     300.016     -0.000     54.253   3796.181   3880.579   3831.024   3676.940     48.193      5.726    216.603  15264.985
      1045     300.016     -0.000     54.253   3796.183   3880.581   3831.026   3676.941     48.193      5.726    216.603  15264.985
      1050     300.016     -0.000     54.253   3796.185   3880.583   3831.028   3676.943     48.193      5.726    216.603  15264.985
      1055     300.017     -0.000     54.253   3796.187   3880.585   3831.030   3676.945     48.193      5.726    216.603  15264.986
      1060     300.017     -0.000     54.253   3796.188   3880.587   3831.032   3676.947     48.193      5.726    216.604  15264.986
      1065     300.017     -0.000     54.253   3796.190   3880.589   3831.034   3676.949     48.193      5.726    216.604  15264.986
      1070     300.017     -0.000     54.253   3796.192   3880.591   3831.036   3676.951     48.193      5.726    216.604  15264.986
      1075     300.017     -0.000     54.253   3796.194   3880.593   3831.038   3676.953     48.193      5.726    216.604  15264.986
      1080     300.017     -0.000     54.254   3796.196   3880.595   3831.040   3676.955     48.193      5.726    216.604  15264.986
      1085     300.018     -0.000     54.254   3796.198   3880.597   3831.042   3676.957     48.193      5.726    216.604  15264.986
      1090     300.018     -0.000     54.254   3796.200   3880.599   3831.044   3676.959     48.193      5.726    216.604  15264.986
      1095     300.018     -0.000     54.254   3796.202   3880.601   3831.046   3676.960     48.193      5.726    216.604  15264.987
      1100     300.018     -0.000     54.254   3796.204   3880.603   3831.048   3676.962     48.193      5.726    216.605  15264.987
      1105     300.018     -0.000     54.254   3796.206   3880.605   3831.050   3676.964     48.193      5.726    216.605  15264.987
      1110     300.018     -0.000     54.254   3796.209   3880.607   3831.052   3676.966     48.193      5.726    216.605  15264.987
      1115     300.019     -0.000     54.254   3796.211   3880.609   3831.054   3676.968     48.193      5.726    216.605  15264.987
      1120     300.019     -0.000     54.254   3796.213   3880.611   3831.056   3676.970     48.193      5.726    216.605  15264.987
      1125     300.019     -0.000     54.254   3796.215   3880.613   3831.058   3676.972     48.193      5.726    216.605  15264.987
      1130     300.019     -0.000     54.254   3796.217   3880.616   3831.060   3676.974     48.193      5.726    216.605  15264.987
      1135     300.019     -0.000     54.254   3796.219   3880.618   3831.063   3676.976     48.193      5.726    216.605  15264.988
      1140     300.019     -0.000     54.254   3796.221   3880.620   3831.065   3676.978     48.193      5.726    216.605  15264.988
      1145     300.020     -0.000     54.254   3796.223   3880.622   3831.067   3676.981     48.193      5.726    216.606  15264.988
      1150     300.020     -0.000     54.254   3796.225   3880.624   3831.069   3676.983     48.193      5.726    216.606  15264.988
      1155     300.020     -0.000     54.254   3796.227   3880.626   3831.071   3676.985     48.193      5.726    216.606  15264.988
      1160     300.020     -0.000     54.254   3796.229   3880.628   3831.073   3676.987     48.193      5.726    216.606  15264.988
      1165     300.020     -0.000     54.254   3796.232   3880.631   3831.075   3676.989     48.193      5.726    216.606  15264.988
      1170     300.020     -0.000     54.254   3796.234   3880.633   3831.078   3676.991     48.193      5.726    216.606  15264.988
      1175     300.021     -0.000     54.254   3796.236   3880.635   3831.080   3676.993     48.193      5.726    216.606  15264.989
      1180     300.021     -0.000     54.254   3796.238   3880.637   3831.082   3676.995     48.193      5.726    216.606  15264.989
      1185     300.021     -0.000     54.254   3796.240   3880.639   3831.084   3676.997     48.193      5.726    216.607  15264.989
      1190     300.021     -0.000     54.254   3796.242   3880.642   3831.086   3676.999     48.193      5.726    216.607  15264.989
      1195     300.021     -0.000     54.254   3796.245   3880.644   3831.089   3677.001     48.193      5.726    216.607  15264.989
      1200     300.022     -0.000     54.254   3796.247   3880.646   3831.091   3677.004     48.193      5.726    216.607  15264.989
      1205     300.022     -0.000     54.254   3796.249   3880.648   3831.093   3677.006     48.193      5.726    216.607  15264.989
      1210     300.022     -0.000     54.254   3796.251   3880.651   3831.095   3677.008     48.193      5.726    216.607  15264.990
      1215     300.022     -0.000     54.254   3796.253   3880.653   3831.097   3677.010     48.194      5.726    216.607  15264.990
      1220     300.022     -0.000     54.254   3796.256   3880.655   3831.100   3677.012     48.194      5.726    216.607  15264.990
      1225     300.022     -0.000     54.254   3796.258   3880.658   3831.102   3677.014     48.194      5.726    216.608  15264.990
      1230     300.023     -0.000     54.254   3796.260   3880.660   3831.104   3677.017     48.194      5.726    216.608  15264.990
      1235     300.023     -0.000     54.254   3796.263   3880.662   3831.107   3677.019     48.194      5.726    216.608  15264.990
      1240     300.023     -0.000     54.255   3796.265   3880.665   3831.109   3677.021     48.194      5.726    216.608  15264.990
      1245     300.023     -0.000     54.255   3796.267   3880.667   3831.111   3677.023     48.194      5.726    216.608  15264.991
      1250     300.023     -0.000     54.255   3796.269   3880.669   3831.113   3677.025     48.194      5.726    216.608  15264.991
      1255     300.024     -0.000     54.255   3796.272   3880.672   3831.116   3677.028     48.194      5.726    216.608  15264.991
      1260     300.024     -0.000     54.255   3796.274   3880.674   3831.118   3677.030     48.194      5.726    216.608  15264.991
      1265     300.024     -0.000     54.255   3796.276   3880.676   3831.121   3677.032     48.194      5.726    216.609  15264.991
      1270     300.024     -0.000     54.255   3796.279   3880.679   3831.123   3677.034     48.194      5.726    216.609  15264.991
      1275     300.024     -0.000     54.255   3796.281   3880.681   3831.125   3677.037     48.194      5.726    216.609  15264.991
      1280     300.024     -0.000     54.255   3796.283   3880.684   3831.128   3677.039     48.194      5.726    216.609  15264.992
      1285     300.025     -0.000     54.255   3796.286   3880.686   3831.130   3677.041     48.194      5.726    216.609  15264.992
      1290     300.025     -0.000     54.255   3796.288   3880.688   3831.132   3677.043     48.194      5.726    216.609  15264.992
      1295     300.025     -0.000     54.255   3796.290   3880.691   3831.135   3677.046     48.194      5.726    216.609  15264.992
      1300     300.025     -0.000     54.255   3796.293   3880.693   3831.137   3677.048     48.194      5.726    216.610  15264.992
      1305     300.025     -0.000     54.255   3796.295   3880.696   3831.140   3677.050     48.194      5.726    216.610  15264.992
      1310     300.026     -0.000     54.255   3796.298   3880.698   3831.142   3677.053     48.194      5.726    216.610  15264.992
      1315     300.026     -0.000     54.255   3796.300   3880.701   3831.145   3677.055     48.194      5.726    216.610  15264.993
      1320     300.026     -0.000     54.255   3796.303   3880.703   3831.147   3677.057     48.194      5.726    216.610  15264.993
      1325     300.026     -0.000     54.255   3796.305   3880.706   3831.149   3677.060     48.194      5.726    216.610  15264.993
      1330     300.026     -0.000     54.255   3796.307   3880.708   3831.152   3677.062     48.194      5.726    216.610  15264.993
      1335     300.027     -0.000     54.255   3796.310   3880.711   3831.154   3677.065     48.194      5.726    216.611  15264.993
      1340     300.027     -0.000     54.255   3796.312   3880.713   3831.157   3677.067     48.194      5.726    216.611  15264.993
      1345     300.027     -0.000     54.255   3796.315   3880.716   3831.159   3677.069     48.194      5.726    216.611  15264.993
      1350     300.027     -0.000     54.255   3796.317   3880.718   3831.162   3677.072     48.194      5.726    216.611  15264.994
      1355     300.027     -0.000     54.255   3796.320   3880.721   3831.164   3677.074     48.194      5.726    216.611  15264.994
      1360     300.028     -0.000     54.255   3796.322   3880.723   3831.167   3677.077     48.194      5.726    216.611  15264.994
      1365     300.028     -0.000     54.255   3796.325   3880.726   3831.169   3677.079     48.194      5.726    216.611  15264.994
      1370     300.028     -0.000     54.255   3796.327   3880.728   3831.172   3677.081     48.194      5.726    216.612  15264.994
      1375     300.028     -0.000     54.255   3796.330   3880.731   3831.175   3677.084     48.194      5.726    216.612  15264.994
      1380     300.028     -0.000     54.256   3796.332   3880.734   3831.177   3677.086     48.194      5.726    216.612  15264.995
      1385     300.029     -0.000     54.256   3796.335   3880.736   3831.180   3677.089     48.195      5.726    216.612  15264.995
      1390     300.029     -0.000     54.256   3796.337   3880.739   3831.182   3677.091     48.195      5.726    216.612  15264.995
      1395     300.029     -0.000     54.256   3796.340   3880.741   3831.185   3677.094     48.195      5.726    216.612  15264.995
      1400     300.029     -0.000     54.256   3796.343   3880.744   3831.187   3677.096     48.195      5.726    216.612  15264.995
      1405     300.029     -0.000     54.256   3796.345   3880.747   3831.190   3677.099     48.195      5.726    216.613  15264.995
      1410     300.030     -0.000     54.256   3796.348   3880.749   3831.193   3677.101     48.195      5.726    216.613  15264.996
      1415     300.030     -0.000     54.256   3796.350   3880.752   3831.195   3677.104     48.195      5.726    216.613  15264.996
      1420     300.030     -0.000     54.256   3796.353   3880.755   3831.198   3677.106     48.195      5.726    216.613  15264.996
      1425     300.030     -0.000     54.256   3796.356   3880.757   3831.201   3677.109     48.195      5.726    216.613  15264.996
      1430     300.031     -0.000     54.256   3796.358   3880.760   3831.203   3677.111     48.195      5.726    216.613  15264.996
      1435     300.031     -0.000     54.256   3796.361   3880.763   3831.206   3677.114     48.195      5.726    216.613  15264.996
      1440     300.031     -0.000     54.256   3796.364   3880.765   3831.209   3677.117     48.195      5.726    216.614  15264.997
      1445     300.031     -0.000     54.256   3796.366   3880.768   3831.211   3677.119     48.195      5.726    216.614  15264.997
      1450     300.031     -0.000     54.256   3796.369   3880.771   3831.214   3677.122     48.195      5.726    216.614  15264.997
      1455     300.032     -0.000     54.256   3796.371   3880.774   3831.217   3677.124     48.195      5.726    216.614  15264.997
      1460     300.032     -0.000     54.256   3796.374   3880.776   3831.219   3677.127     48.195      5.726    216.614  15264.997
      1465     300.032     -0.000     54.256   3796.377   3880.779   3831.222   3677.129     48.195      5.726    216.614  15264.997
      1470     300.032     -0.000     54.256   3796.380   3880.782   3831.225   3677.132     48.195      5.726    216.615  15264.998
      1475     300.033     -0.000     54.256   3796.382   3880.785   3831.227   3677.135     48.195      5.726    216.615  15264.998
      1480     300.033     -0.000     54.256   3796.385   3880.787   3831.230   3677.137     48.195      5.726    216.615  15264.998
      1485     300.033     -0.000     54.256   3796.388   3880.790   3831.233   3677.140     48.195      5.726    216.615  15264.998
      1490     300.033     -0.000     54.256   3796.390   3880.793   3831.236   3677.143     48.195      5.726    216.615  15264.998
      1495     300.033     -0.000     54.256   3796.393   3880.796   3831.238   3677.145     48.195      5.726    216.615  15264.998
      1500     300.034     -0.000     54.256   3796.396   3880.799   3831.241   3677.148     48.195      5.726    216.615  15264.999
      1505     300.034     -0.000     54.256   3796.399   3880.801   3831.244   3677.151     48.195      5.726    216.616  15264.999
      1510     300.034     -0.000     54.257   3796.401   3880.804   3831.247   3677.153     48.195      5.726    216.616  15264.999
      1515     300.034     -0.000     54.257   3796.404   3880.807   3831.250   3677.156     48.195      5.726    216.616  15264.999
      1520     300.035     -0.000     54.257   3796.407   3880.810   3831.252   3677.159     48.195      5.726    216.616  15264.999
      1525     300.035     -0.000     54.257   3796.410   3880.813   3831.255   3677.161     48.195      5.726    216.616  15264.999
      1530     300.035     -0.000     54.257   3796.413   3880.816   3831.258   3677.164     48.195      5.726    216.616  15265.000
      1535     300.035     -0.000     54.257   3796.415   3880.819   3831.261   3677.167     48.196      5.726    216.617  15265.000
      1540     300.035     -0.000     54.257   3796.418   3880.822   3831.264   3677.170     48.196      5.726    216.617  15265.000
      1545     300.036     -0.000     54.257   3796.421   3880.824   3831.267   3677.172     48.196      5.726    216.617  15265.000
      1550     300.036     -0.000     54.257   3796.424   3880.827   3831.270   3677.175     48.196      5.726    216.617  15265.000
      1555     300.036     -0.000     54.257   3796.427   3880.830   3831.272   3677.178     48.196      5.726    216.617  15265.000
      1560     300.036     -0.000     54.257   3796.430   3880.833   3831.275   3677.181     48.196      5.726    216.617  15265.001
      1565     300.037     -0.000     54.257   3796.433   3880.836   3831.278   3677.183     48.196      5.726    216.618  15265.001
      1570     300.037     -0.000     54.257   3796.435   3880.839   3831.281   3677.186     48.196      5.726    216.618  15265.001
      1575     300.037     -0.000     54.257   3796.438   3880.842   3831.284   3677.189     48.196      5.726    216.618  15265.001
      1580     300.037     -0.000     54.257   3796.441   3880.845   3831.287   3677.192     48.196      5.726    216.618  15265.001
      1585     300.038     -0.000     54.257   3796.444   3880.848   3831.290   3677.195     48.196      5.726    216.618  15265.002
      1590     300.038     -0.000     54.257   3796.447   3880.851   3831.293   3677.198     48.196      5.726    216.618  15265.002
      1595     300.038     -0.000     54.257   3796.450   3880.854   3831.296   3677.200     48.196      5.726    216.619  15265.002
      1600     300.038     -0.000     54.257   3796.453   3880.857   3831.299   3677.203     48.196      5.726    216.619  15265.002
      1605     300.038     -0.000     54.257   3796.456   3880.860   3831.302   3677.206     48.196      5.726    216.619  15265.002
      1610     300.039     -0.000     54.257   3796.459   3880.863   3831.305   3677.209     48.196      5.726    216.619  15265.002
      1615     300.039     -0.000     54.257   3796.462   3880.866   3831.308   3677.212     48.196      5.726    216.619  15265.003
      1620     300.039     -0.000     54.257   3796.465   3880.869   3831.311   3677.215     48.196      5.726    216.619  15265.003
      1625     300.039     -0.000     54.257   3796.468   3880.872   3831.314   3677.218     48.196      5.726    216.620  15265.003
      1630     300.040     -0.000     54.258   3796.471   3880.875   3831.317   3677.220     48.196      5.726    216.620  15265.003
      1635     300.040     -0.000     54.258   3796.474   3880.878   3831.320   3677.223     48.196      5.726    216.620  15265.003
      1640     300.040     -0.000     54.258   3796.477   3880.881   3831.323   3677.226     48.196      5.726    216.620  15265.004
      1645     300.040     -0.000     54.258   3796.480   3880.884   3831.326   3677.229     48.196      5.726    216.620  15265.004
      1650     300.041     -0.000     54.258   3796.483   3880.888   3831.329   3677.232     48.196      5.726    216.620  15265.004
      1655     300.041     -0.000     54.258   3796.486   3880.891   3831.332   3677.235     48.196      5.726    216.621  15265.004
      1660     300.041     -0.000     54.258   3796.489   3880.894   3831.335   3677.238     48.196      5.727    216.621  15265.004
      1665     300.041     -0.000     54.258   3796.492   3880.897   3831.338   3677.241     48.197      5.727    216.621  15265.005
      1670     300.042     -0.000     54.258   3796.495   3880.900   3831.341   3677.244     48.197      5.727    216.621  15265.005
      1675     300.042     -0.000     54.258   3796.498   3880.903   3831.344   3677.247     48.197      5.727    216.621  15265.005
      1680     300.042     -0.000     54.258   3796.501   3880.906   3831.348   3677.250     48.197      5.727    216.622  15265.005
      1685     300.042     -0.000     54.258   3796.504   3880.909   3831.351   3677.253     48.197      5.727    216.622  15265.005
      1690     300.043     -0.000     54.258   3796.507   3880.913   3831.354   3677.256     48.197      5.727    216.622  15265.005
      1695     300.043     -0.000     54.258   3796.511   3880.916   3831.357   3677.259     48.197      5.727    216.622  15265.006
      1700     300.043     -0.000     54.258   3796.514   3880.919   3831.360   3677.262     48.197      5.727    216.622  15265.006
      1705     300.043     -0.000     54.258   3796.517   3880.922   3831.363   3677.265     48.197      5.727    216.622  15265.006
      1710     300.044     -0.000     54.258   3796.520   3880.925   3831.366   3677.268     48.197      5.727    216.623  15265.006
      1715     300.044     -0.000     54.258   3796.523   3880.929   3831.370   3677.271     48.197      5.727    216.623  15265.006
      1720     300.044     -0.000     54.258   3796.526   3880.932   3831.373   3677.274     48.197      5.727    216.623  15265.007
      1725     300.044     -0.000     54.258   3796.529   3880.935   3831.376   3677.277     48.197      5.727    216.623  15265.007
      1730     300.045     -0.000     54.258   3796.533   3880.938   3831.379   3677.280     48.197      5.727    216.623  15265.007
      1735     300.045     -0.000     54.258   3796.536   3880.942   3831.382   3677.283     48.197      5.727    216.623  15265.007
      1740     300.045     -0.000     54.259   3796.539   3880.945   3831.386   3677.286     48.197      5.727    216.624  15265.007
      1745     300.045     -0.000     54.259   3796.542   3880.948   3831.389   3677.290     48.197      5.727    216.624  15265.008
      1750     300.046     -0.000     54.259   3796.545   3880.951   3831.392   3677.293     48.197      5.727    216.624  15265.008
      1755     300.046     -0.000     54.259   3796.549   3880.955   3831.395   3677.296     48.197      5.727    216.624  15265.008
      1760     300.046     -0.000     54.259   3796.552   3880.958   3831.399   3677.299     48.197      5.727    216.624  15265.008
      1765     300.047     -0.000     54.259   3796.555   3880.961   3831.402   3677.302     48.197      5.727    216.625  15265.008
      1770     300.047     -0.000     54.259   3796.558   3880.965   3831.405   3677.305     48.197      5.727    216.625  15265.009
      1775     300.047     -0.000     54.259   3796.562   3880.968   3831.408   3677.308     48.197      5.727    216.625  15265.009
      1780     300.047     -0.000     54.259   3796.565   3880.971   3831.412   3677.312     48.197      5.727    216.625  15265.009
      1785     300.048     -0.000     54.259   3796.568   3880.975   3831.415   3677.315     48.197      5.727    216.625  15265.009
      1790     300.048     -0.000     54.259   3796.571   3880.978   3831.418   3677.318     48.198      5.727    216.626  15265.009
      1795     300.048     -0.000     54.259   3796.575   3880.981   3831.422   3677.321     48.198      5.727    216.626  15265.010
      1800     300.048     -0.000     54.259   3796.578   3880.985   3831.425   3677.324     48.198      5.727    216.626  15265.010
      1805     300.049     -0.000     54.259   3796.581   3880.988   3831.428   3677.327     48.198      5.727    216.626  15265.010
      1810     300.049     -0.000     54.259   3796.585   3880.992   3831.432   3677.331     48.198      5.727    216.626  15265.010
      1815     300.049     -0.000     54.259   3796.588   3880.995   3831.435   3677.334     48.198      5.727    216.626  15265.010
      1820     300.049     -0.000     54.259   3796.591   3880.998   3831.439   3677.337     48.198      5.727    216.627  15265.011
      1825     300.050     -0.000     54.259   3796.595   3881.002   3831.442   3677.340     48.198      5.727    216.627  15265.011
      1830     300.050     -0.000     54.259   3796.598   3881.005   3831.445   3677.344     48.198      5.727    216.627  15265.011
      1835     300.050     -0.000     54.259   3796.601   3881.009   3831.449   3677.347     48.198      5.727    216.627  15265.011
      1840     300.051     -0.000     54.259   3796.605   3881.012   3831.452   3677.350     48.198      5.727    216.627  15265.012
      1845     300.051     -0.000     54.260   3796.608   3881.016   3831.456   3677.354     48.198      5.727    216.628  15265.012
      1850     300.051     -0.000     54.260   3796.612   3881.019   3831.459   3677.357     48.198      5.727    216.628  15265.012
      1855     300.051     -0.000     54.260   3796.615   3881.023   3831.462   3677.360     48.198      5.727    216.628  15265.012
      1860     300.052     -0.000     54.260   3796.618   3881.026   3831.466   3677.363     48.198      5.727    216.628  15265.012
      1865     300.052     -0.000     54.260   3796.622   3881.030   3831.469   3677.367     48.198      5.727    216.628  15265.013
      1870     300.052     -0.000     54.260   3796.625   3881.033   3831.473   3677.370     48.198      5.727    216.629  15265.013
      1875     300.052     -0.000     54.260   3796.629   3881.037   3831.476   3677.373     48.198      5.727    216.629  15265.013
      1880     300.053     -0.000     54.260   3796.632   3881.040   3831.480   3677.377     48.198      5.727    216.629  15265.013
      1885     300.053     -0.000     54.260   3796.636   3881.044   3831.483   3677.380     48.198      5.727    216.629  15265.013
      1890     300.053     -0.000     54.260   3796.639   3881.047   3831.487   3677.383     48.198      5.727    216.629  15265.014
      1895     300.054     -0.000     54.260   3796.643   3881.051   3831.490   3677.387     48.198      5.727    216.630  15265.014
      1900     300.054     -0.000     54.260   3796.646   3881.054   3831.494   3677.390     48.198      5.727    216.630  15265.014
      1905     300.054     -0.000     54.260   3796.650   3881.058   3831.497   3677.394     48.199      5.727    216.630  15265.014
      1910     300.054     -0.000     54.260   3796.653   3881.062   3831.501   3677.397     48.199      5.727    216.630  15265.015
      1915     300.055     -0.000     54.260   3796.657   3881.065   3831.504   3677.400     48.199      5.727    216.630  15265.015
      1920     300.055     -0.000     54.260   3796.660   3881.069   3831.508   3677.404     48.199      5.727    216.631  15265.015
      1925     300.055     -0.000     54.260   3796.664   3881.072   3831.512   3677.407     48.199      5.727    216.631  15265.015
      1930     300.056     -0.000     54.260   3796.667   3881.076   3831.515   3677.411     48.199      5.727    216.631  15265.015
      1935     300.056     -0.000     54.260   3796.671   3881.080   3831.519   3677.414     48.199      5.727    216.631  15265.016
      1940     300.056     -0.000     54.260   3796.674   3881.083   3831.522   3677.418     48.199      5.727    216.631  15265.016
      1945     300.056     -0.000     54.261   3796.678   3881.087   3831.526   3677.421     48.199      5.727    216.632  15265.016
      1950     300.057     -0.000     54.261   3796.682   3881.091   3831.530   3677.424     48.199      5.727    216.632  15265.016
      1955     300.057     -0.000     54.261   3796.685   3881.094   3831.533   3677.428     48.199      5.727    216.632  15265.017
      1960     300.057     -0.000     54.261   3796.689   3881.098   3831.537   3677.431     48.199      5.727    216.632  15265.017
      1965     300.058     -0.000     54.261   3796.692   3881.102   3831.540   3677.435     48.199      5.727    216.632  15265.017
      1970     300.058     -0.000     54.261   3796.696   3881.105   3831.544   3677.438     48.199      5.727    216.633  15265.017
      1975     300.058     -0.000     54.261   3796.700   3881.109   3831.548   3677.442     48.199      5.727    216.633  15265.017
      1980     300.059     -0.000     54.261   3796.703   3881.113   3831.551   3677.445     48.199      5.727    216.633  15265.018
      1985     300.059     -0.000     54.261   3796.707   3881.117   3831.555   3677.449     48.199      5.727    216.633  15265.018
      1990     300.059     -0.000     54.261   3796.711   3881.120   3831.559   3677.453     48.199      5.727    216.633  15265.018
      1995     300.059     -0.000     54.261   3796.714   3881.124   3831.563   3677.456     48.199      5.727    216.634  15265.018
      2000     300.060     -0.000     54.261   3796.718   3881.128   3831.566   3677.460     48.199      5.727    216.634  15265.019
      2005     300.060     -0.000     54.261   3796.722   3881.132   3831.570   3677.463     48.199      5.727    216.634  15265.019
      2010     300.060     -0.000     54.261   3796.725   3881.135   3831.574   3677.467     48.200      5.727    216.634  15265.019
      2015     300.061     -0.000     54.261   3796.729   3881.139   3831.577   3677.470     48.200      5.727    216.635  15265.019
      2020     300.061     -0.000     54.261   3796.733   3881.143   3831.581   3677.474     48.200      5.727    216.635  15265.019
      2025     300.061     -0.000     54.261   3796.736   3881.147   3831.585   3677.478     48.200      5.727    216.635  15265.020
      2030     300.062     -0.000     54.261   3796.740   3881.151   3831.589   3677.481     48.200      5.727    216.635  15265.020
      2035     300.062     -0.000     54.262   3796.744   3881.154   3831.592   3677.485     48.200      5.727    216.635  15265.020
      2040     300.062     -0.000     54.262   3796.748   3881.158   3831.596   3677.488     48.200      5.727    216.636  15265.020
      2045     300.062     -0.000     54.262   3796.751   3881.162   3831.600   3677.492     48.200      5.727    216.636  15265.021
      2050     300.063     -0.000     54.262   3796.755   3881.166   3831.604   3677.496     48.200      5.727    216.636  15265.021
      2055     300.063     -0.000     54.262   3796.759   3881.170   3831.608   3677.499     48.200      5.727    216.636  15265.021
      2060     300.063     -0.000     54.262   3796.763   3881.174   3831.611   3677.503     48.200      5.727    216.636  15265.021
      2065     300.064     -0.000     54.262   3796.766   3881.177   3831.615   3677.507     48.200      5.727    216.637  15265.022
      2070     300.064     -0.000     54.262   3796.770   3881.181   3831.619   3677.510     48.200      5.727    216.637  15265.022
      2075     300.064     -0.000     54.262   3796.774   3881.185   3831.623   3677.514     48.200      5.727    216.637  15265.022
      2080     300.065     -0.000     54.262   3796.778   3881.189   3831.627   3677.518     48.200      5.727    216.637  15265.022
      2085     300.065     -0.000     54.262   3796.782   3881.193   3831.631   3677.522     48.200      5.727    216.638  15265.023
      2090     300.065     -0.000     54.262   3796.786   3881.197   3831.635   3677.525     48.200      5.727    216.638  15265.023
      2095     300.066     -0.000     54.262   3796.789   3881.201   3831.638   3677.529     48.200      5.727    216.638  15265.023
      2100     300.066     -0.000     54.262   3796.793   3881.205   3831.642   3677.533     48.200      5.727    216.638  15265.023
      2105     300.066     -0.000     54.262   3796.797   3881.209   3831.646   3677.536     48.200      5.727    216.638  15265.023
      2110     300.066     -0.000     54.262   3796.801   3881.213   3831.650   3677.540     48.201      5.727    216.639  15265.024
      2115     300.067     -0.000     54.262   3796.805   3881.217   3831.654   3677.544     48.201      5.727    216.639  15265.024
      2120     300.067     -0.000     54.262   3796.809   3881.221   3831.658   3677.548     48.201      5.727    216.639  15265.024
      2125     300.067     -0.000     54.263   3796.813   3881.225   3831.662   3677.551     48.201      5.727    216.639  15265.024
      2130     300.068     -0.000     54.263   3796.817   3881.229   3831.666   3677.555     48.201      5.727    216.640  15265.025
      2135     300.068     -0.000     54.263   3796.821   3881.233   3831.670   3677.559     48.201      5.727    216.640  15265.025
      2140     300.068     -0.000     54.263   3796.824   3881.237   3831.674   3677.563     48.201      5.727    216.640  15265.025
      2145     300.069     -0.000     54.263   3796.828   3881.241   3831.678   3677.567     48.201      5.727    216.640  15265.025
      2150     300.069     -0.000     54.263   3796.832   3881.245   3831.682   3677.571     48.201      5.727    216.641  15265.026
      2155     300.069     -0.000     54.263   3796.836   3881.249   3831.686   3677.574     48.201      5.727    216.641  15265.026
      2160     300.070     -0.000     54.263   3796.840   3881.253   3831.690   3677.578     48.201      5.727    216.641  15265.026
      2165     300.070     -0.000     54.263   3796.844   3881.257   3831.694   3677.582     48.201      5.727    216.641  15265.026
      2170     300.070     -0.000     54.263   3796.848   3881.261   3831.698   3677.586     48.201      5.727    216.641  15265.027
      2175     300.071     -0.000     54.263   3796.852   3881.265   3831.702   3677.590     48.201      5.727    216.642  15265.027
      2180     300.071     -0.000     54.263   3796.856   3881.269   3831.706   3677.594     48.201      5.727    216.642  15265.027
      2185     300.071     -0.000     54.263   3796.860   3881.273   3831.710   3677.598     48.201      5.727    216.642  15265.027
      2190     300.072     -0.000     54.263   3796.864   3881.277   3831.714   3677.601     48.201      5.727    216.642  15265.028
      2195     300.072     -0.000     54.263   3796.868   3881.282   3831.718   3677.605     48.201      5.727    216.643  15265.028
      2200     300.072     -0.000     54.263   3796.872   3881.286   3831.722   3677.609     48.201      5.727    216.643  15265.028
      2205     300.073     -0.000     54.263   3796.876   3881.290   3831.726   3677.613     48.201      5.727    216.643  15265.028
      2210     300.073     -0.000     54.264   3796.880   3881.294   3831.730   3677.617     48.202      5.727    216.643  15265.029
      2215     300.073     -0.000     54.264   3796.885   3881.298   3831.734   3677.621     48.202      5.727    216.643  15265.029
      2220     300.074     -0.000     54.264   3796.889   3881.302   3831.739   3677.625     48.202      5.727    216.644  15265.029
      2225     300.074     -0.000     54.264   3796.893   3881.307   3831.743   3677.629     48.202      5.727    216.644  15265.029
      2230     300.074     -0.000     54.264   3796.897   3881.311   3831.747   3677.633     48.202      5.727    216.644  15265.030
      2235     300.075     -0.000     54.264   3796.901   3881.315   3831.751   3677.637     48.202      5.727    216.644  15265.030
      2240     300.075     -0.000     54.264   3796.905   3881.319   3831.755   3677.641     48.202      5.727    216.645  15265.030
      2245     300.075     -0.000     54.264   3796.909   3881.323   3831.759   3677.645     48.202      5.727    216.645  15265.030
      2250     300.076     -0.000     54.264   3796.913   3881.328   3831.763   3677.649     48.202      5.727    216.645  15265.031
      2255     300.076     -0.000     54.264   3796.917   3881.332   3831.768   3677.653     48.202      5.727    216.645  15265.031
      2260     300.076     -0.000     54.264   3796.922   3881.336   3831.772   3677.657     48.202      5.727    216.646  15265.031
      2265     300.077     -0.000     54.264   3796.926   3881.340   3831.776   3677.661     48.202      5.727    216.646  15265.031
      2270     300.077     -0.000     54.264   3796.930   3881.345   3831.780   3677.665     48.202      5.727    216.646  15265.032
      2275     300.077     -0.000     54.264   3796.934   3881.349   3831.784   3677.669     48.202      5.727    216.646  15265.032
      2280     300.078     -0.000     54.264   3796.938   3881.353   3831.789   3677.673     48.202      5.727    216.647  15265.032
      2285     300.078     -0.000     54.264   3796.942   3881.357   3831.793   3677.677     48.202      5.727    216.647  15265.033
      2290     300.078     -0.000     54.264   3796.947   3881.362   3831.797   3677.681     48.202      5.727    216.647  15265.033
      2295     300.079     -0.000     54.265   3796.951   3881.366   3831.801   3677.685     48.202      5.727    216.647  15265.033
      2300     300.079     -0.000     54.265   3796.955   3881.370   3831.806   3677.689     48.202      5.727    216.648  15265.033
      2305     300.079     -0.000     54.265   3796.959   3881.375   3831.810   3677.693     48.203      5.727    216.648  15265.034
      2310     300.080     -0.000     54.265   3796.964   3881.379   3831.814   3677.698     48.203      5.727    216.648  15265.034
      2315     300.080     -0.000     54.265   3796.968   3881.383   3831.818   3677.702     48.203      5.727    216.648  15265.034
      2320     300.080     -0.000     54.265   3796.972   3881.388   3831.823   3677.706     48.203      5.727    216.649  15265.034
      2325     300.081     -0.000     54.265   3796.976   3881.392   3831.827   3677.710     48.203      5.727    216.649  15265.035
      2330     300.081     -0.000     54.265   3796.981   3881.396   3831.831   3677.714     48.203      5.727    216.649  15265.035
      2335     300.081     -0.000     54.265   3796.985   3881.401   3831.836   3677.718     48.203      5.727    216.649  15265.035
      2340     300.082     -0.000     54.265   3796.989   3881.405   3831.840   3677.722     48.203      5.727    216.649  15265.035
      2345     300.082     -0.000     54.265   3796.994   3881.410   3831.844   3677.727     48.203      5.727    216.650  15265.036
      2350     300.082     -0.000     54.265   3796.998   3881.414   3831.849   3677.731     48.203      5.727    216.650  15265.036
      2355     300.083     -0.000     54.265   3797.002   3881.418   3831.853   3677.735     48.203      5.728    216.650  15265.036
      2360     300.083     -0.000     54.265   3797.006   3881.423   3831.858   3677.739     48.203      5.728    216.650  15265.037
      2365     300.083     -0.000     54.265   3797.011   3881.427   3831.862   3677.743     48.203      5.728    216.651  15265.037
      2370     300.084     -0.000     54.265   3797.015   3881.432   3831.866   3677.748     48.203      5.728    216.651  15265.037
      2375     300.084     -0.000     54.266   3797.020   3881.436   3831.871   3677.752     48.203      5.728    216.651  15265.037
      2380     300.085     -0.000     54.266   3797.024   3881.441   3831.875   3677.756     48.203      5.728    216.651  15265.038
      2385     300.085     -0.000     54.266   3797.028   3881.445   3831.880   3677.760     48.203      5.728    216.652  15265.038
      2390     300.085     -0.000     54.266   3797.033   3881.450   3831.884   3677.764     48.203      5.728    216.652  15265.038
      2395     300.086     -0.000     54.266   3797.037   3881.454   3831.888   3677.769     48.204      5.728    216.652  15265.038
      2400     300.086     -0.000     54.266   3797.041   3881.459   3831.893   3677.773     48.204      5.728    216.652  15265.039
      2405     300.086     -0.000     54.266   3797.046   3881.463   3831.897   3677.777     48.204      5.728    216.653  15265.039
      2410     300.087     -0.000     54.266   3797.050   3881.468   3831.902   3677.782     48.204      5.728    216.653  15265.039
      2415     300.087     -0.000     54.266   3797.055   3881.472   3831.906   3677.786     48.204      5.728    216.653  15265.040
      2420     300.087     -0.000     54.266   3797.059   3881.477   3831.911   3677.790     48.204      5.728    216.654  15265.040
      2425     300.088     -0.000     54.266   3797.064   3881.481   3831.915   3677.794     48.204      5.728    216.654  15265.040
      2430     300.088     -0.000     54.266   3797.068   3881.486   3831.920   3677.799     48.204      5.728    216.654  15265.040
      2435     300.088     -0.000     54.266   3797.073   3881.490   3831.924   3677.803     48.204      5.728    216.654  15265.041
      2440     300.089     -0.000     54.266   3797.077   3881.495   3831.929   3677.807     48.204      5.728    216.655  15265.041
      2445     300.089     -0.000     54.266   3797.082   3881.500   3831.933   3677.812     48.204      5.728    216.655  15265.041
      2450     300.090     -0.000     54.267   3797.086   3881.504   3831.938   3677.816     48.204      5.728    216.655  15265.041
      2455     300.090     -0.000     54.267   3797.091   3881.509   3831.942   3677.820     48.204      5.728    216.655  15265.042
      2460     300.090     -0.000     54.267   3797.095   3881.513   3831.947   3677.825     48.204      5.728    216.656  15265.042
      2465     300.091     -0.000     54.267   3797.100   3881.518   3831.951   3677.829     48.204      5.728    216.656  15265.042
      2470     300.091     -0.000     54.267   3797.104   3881.523   3831.956   3677.834     48.204      5.728    216.656  15265.043
      2475     300.091     -0.000     54.267   3797.109   3881.527   3831.961   3677.838     48.204      5.728    216.656  15265.043
      2480     300.092     -0.000     54.267   3797.113   3881.532   3831.965   3677.842     48.204      5.728    216.657  15265.043
      2485     300.092     -0.000     54.267   3797.118   3881.537   3831.970   3677.847     48.205      5.728    216.657  15265.043
      2490     300.093     -0.000     54.267   3797.122   3881.541   3831.974   3677.851     48.205      5.728    216.657  15265.044
      2495     300.093     -0.000     54.267   3797.127   3881.546   3831.979   3677.856     48.205      5.728    216.657  15265.044
      2500     300.093     -0.000     54.267   3797.132   3881.551   3831.984   3677.860     48.205      5.728    216.658  15265.044
      2505     300.094     -0.000     54.267   3797.136   3881.555   3831.988   3677.865     48.205      5.728    216.658  15265.045
      2510     300.094     -0.000     54.267   3797.141   3881.560   3831.993   3677.869     48.205      5.728    216.658  15265.045
      2515     300.094     -0.000     54.267   3797.145   3881.565   3831.998   3677.874     48.205      5.728    216.658  15265.045
      2520     300.095     -0.000     54.267   3797.150   3881.570   3832.002   3677.878     48.205      5.728    216.659  15265.045
      2525     300.095     -0.000     54.268   3797.155   3881.574   3832.007   3677.882     48.205      5.728    216.659  15265.046
      2530     300.096     -0.000     54.268   3797.159   3881.579   3832.012   3677.887     48.205      5.728    216.659  15265.046
      2535     300.096     -0.000     54.268   3797.164   3881.584   3832.016   3677.891     48.205      5.728    216.660  15265.046
      2540     300.096     -0.000     54.268   3797.169   3881.589   3832.021   3677.896     48.205      5.728    216.660  15265.047
      2545     300.097     -0.000     54.268   3797.173   3881.593   3832.026   3677.901     48.205      5.728    216.660  15265.047
      2550     300.097     -0.000     54.268   3797.178   3881.598   3832.031   3677.905     48.205      5.728    216.660  15265.047
      2555     300.097     -0.000     54.268   3797.183   3881.603   3832.035   3677.910     48.205      5.728    216.661  15265.047
      2560     300.098     -0.000     54.268   3797.187   3881.608   3832.040   3677.914     48.205      5.728    216.661  15265.048
      2565     300.098     -0.000     54.268   3797.192   3881.613   3832.045   3677.919     48.205      5.728    216.661  15265.048
      2570     300.099     -0.000     54.268   3797.197   3881.617   3832.050   3677.923     48.206      5.728    216.661  15265.048
      2575     300.099     -0.000     54.268   3797.201   3881.622   3832.054   3677.928     48.206      5.728    216.662  15265.049
      2580     300.099     -0.000     54.268   3797.206   3881.627   3832.059   3677.932     48.206      5.728    216.662  15265.049
      2585     300.100     -0.000     54.268   3797.211   3881.632   3832.064   3677.937     48.206      5.728    216.662  15265.049
      2590     300.100     -0.000     54.268   3797.216   3881.637   3832.069   3677.942     48.206      5.728    216.663  15265.050
      2595     300.100     -0.000     54.268   3797.220   3881.642   3832.073   3677.946     48.206      5.728    216.663  15265.050
      2600     300.101     -0.000     54.269   3797.225   3881.646   3832.078   3677.951     48.206      5.728    216.663  15265.050
      2605     300.101     -0.000     54.269   3797.230   3881.651   3832.083   3677.956     48.206      5.728    216.663  15265.050
      2610     300.102     -0.000     54.269   3797.235   3881.656   3832.088   3677.960     48.206      5.728    216.664  15265.051
      2615     300.102     -0.000     54.269   3797.240   3881.661   3832.093   3677.965     48.206      5.728    216.664  15265.051
      2620     300.102     -0.000     54.269   3797.244   3881.666   3832.098   3677.969     48.206      5.728    216.664  15265.051
      2625     300.103     -0.000     54.269   3797.249   3881.671   3832.103   3677.974     48.206      5.728    216.664  15265.052
      2630     300.103     -0.000     54.269   3797.254   3881.676   3832.107   3677.979     48.206      5.728    216.665  15265.052
      2635     300.104     -0.000     54.269   3797.259   3881.681   3832.112   3677.983     48.206      5.728    216.665  15265.052
      2640     300.104     -0.000     54.269   3797.264   3881.686   3832.117   3677.988     48.206      5.728    216.665  15265.053
      2645     300.104     -0.000     54.269   3797.269   3881.691   3832.122   3677.993     48.206      5.728    216.666  15265.053
      2650     300.105     -0.000     54.269   3797.273   3881.696   3832.127   3677.998     48.206      5.728    216.666  15265.053
      2655     300.105     -0.000     54.269   3797.278   3881.701   3832.132   3678.002     48.207      5.728    216.666  15265.053
      2660     300.106     -0.000     54.269   3797.283   3881.706   3832.137   3678.007     48.207      5.728    216.666  15265.054
      2665     300.106     -0.000     54.269   3797.288   3881.711   3832.142   3678.012     48.207      5.728    216.667  15265.054
      2670     300.106     -0.000     54.270   3797.293   3881.716   3832.147   3678.017     48.207      5.728    216.667  15265.054
      2675     300.107     -0.000     54.270   3797.298   3881.721   3832.152   3678.021     48.207      5.728    216.667  15265.055
      2680     300.107     -0.000     54.270   3797.303   3881.726   3832.157   3678.026     48.207      5.728    216.668  15265.055
      2685     300.108     -0.000     54.270   3797.308   3881.731   3832.162   3678.031     48.207      5.728    216.668  15265.055
      2690     300.108     -0.000     54.270   3797.313   3881.736   3832.167   3678.036     48.207      5.728    216.668  15265.056
      2695     300.108     -0.000     54.270   3797.318   3881.741   3832.172   3678.040     48.207      5.728    216.668  15265.056
      2700     300.109     -0.000     54.270   3797.323   3881.746   3832.177   3678.045     48.207      5.728    216.669  15265.056
      2705     300.109     -0.000     54.270   3797.328   3881.751   3832.182   3678.050     48.207      5.728    216.669  15265.057
      2710     300.110     -0.000     54.270   3797.333   3881.756   3832.187   3678.055     48.207      5.728    216.669  15265.057
      2715     300.110     -0.000     54.270   3797.338   3881.761   3832.192   3678.060     48.207      5.728    216.670  15265.057
      2720     300.110     -0.000     54.270   3797.343   3881.766   3832.197   3678.064     48.207      5.728    216.670  15265.057
      2725     300.111     -0.000     54.270   3797.348   3881.772   3832.202   3678.069     48.207      5.728    216.670  15265.058
      2730     300.111     -0.000     54.270   3797.353   3881.777   3832.207   3678.074     48.207      5.728    216.670  15265.058
      2735     300.112     -0.000     54.270   3797.358   3881.782   3832.212   3678.079     48.208      5.728    216.671  15265.058
      2740     300.112     -0.000     54.271   3797.363   3881.787   3832.217   3678.084     48.208      5.728    216.671  15265.059
      2745     300.112     -0.000     54.271   3797.368   3881.792   3832.222   3678.089     48.208      5.728    216.671  15265.059
      2750     300.113     -0.000     54.271   3797.373   3881.797   3832.227   3678.094     48.208      5.728    216.672  15265.059
      2755     300.113     -0.000     54.271   3797.378   3881.802   3832.232   3678.099     48.208      5.728    216.672  15265.060
      2760     300.114     -0.000     54.271   3797.383   3881.808   3832.237   3678.103     48.208      5.728    216.672  15265.060
      2765     300.114     -0.000     54.271   3797.388   3881.813   3832.242   3678.108     48.208      5.728    216.672  15265.060
      2770     300.114     -0.000     54.271   3797.393   3881.818   3832.248   3678.113     48.208      5.728    216.673  15265.061
      2775     300.115     -0.000     54.271   3797.398   3881.823   3832.253   3678.118     48.208      5.728    216.673  15265.061
      2780     300.115     -0.000     54.271   3797.403   3881.828   3832.258   3678.123     48.208      5.728    216.673  15265.061
      2785     300.116     -0.000     54.271   3797.408   3881.834   3832.263   3678.128     48.208      5.728    216.674  15265.062
      2790     300.116     -0.000     54.271   3797.413   3881.839   3832.268   3678.133     48.208      5.728    216.674  15265.062
      2795     300.117     -0.000     54.271   3797.419   3881.844   3832.273   3678.138     48.208      5.728    216.674  15265.062
      2800     300.117     -0.000     54.271   3797.424   3881.849   3832.279   3678.143     48.208      5.728    216.674  15265.062
      2805     300.117     -0.000     54.272   3797.429   3881.855   3832.284   3678.148     48.208      5.728    216.675  15265.063
      2810     300.118     -0.000     54.272   3797.434   3881.860   3832.289   3678.153     48.208      5.728    216.675  15265.063
      2815     300.118     -0.000     54.272   3797.439   3881.865   3832.294   3678.158     48.209      5.728    216.675  15265.063
      2820     300.119     -0.000     54.272   3797.444   3881.871   3832.299   3678.163     48.209      5.728    216.676  15265.064
      2825     300.119     -0.000     54.272   3797.450   3881.876   3832.305   3678.168     48.209      5.728    216.676  15265.064
      2830     300.119     -0.000     54.272   3797.455   3881.881   3832.310   3678.173     48.209      5.728    216.676  15265.064
      2835     300.120     -0.000     54.272   3797.460   3881.887   3832.315   3678.178     48.209      5.728    216.677  15265.065
      2840     300.120     -0.000     54.272   3797.465   3881.892   3832.320   3678.183     48.209      5.728    216.677  15265.065
      2845     300.121     -0.000     54.272   3797.470   3881.897   3832.326   3678.188     48.209      5.729    216.677  15265.065
      2850     300.121     -0.000     54.272   3797.476   3881.903   3832.331   3678.193     48.209      5.729    216.677  15265.066
      2855     300.122     -0.000     54.272   3797.481   3881.908   3832.336   3678.198     48.209      5.729    216.678  15265.066
      2860     300.122     -0.000     54.272   3797.486   3881.913   3832.342   3678.203     48.209      5.729    216.678  15265.066
      2865     300.122     -0.000     54.272   3797.491   3881.919   3832.347   3678.208     48.209      5.729    216.678  15265.067
      2870     300.123     -0.000     54.273   3797.497   3881.924   3832.352   3678.214     48.209      5.729    216.679  15265.067
      2875     300.123     -0.000     54.273   3797.502   3881.929   3832.357   3678.219     48.209      5.729    216.679  15265.067
[...]
      9310     301.469     -0.033     54.483   3807.493   3891.478   3843.155   3687.846     48.332      1.340    217.137  15265.965
      9315     301.471     -0.033     54.484   3807.474   3891.441   3843.148   3687.833     48.335      1.333    217.170  15265.966
      9320     301.474     -0.033     54.484   3807.455   3891.403   3843.141   3687.821     48.338      1.326    217.204  15265.967
      9325     301.477     -0.033     54.484   3807.436   3891.364   3843.135   3687.808     48.341      1.320    217.238  15265.968
      9330     301.480     -0.034     54.484   3807.416   3891.324   3843.128   3687.795     48.343      1.313    217.272  15265.969
      9335     301.483     -0.034     54.485   3807.395   3891.283   3843.122   3687.781     48.346      1.307    217.307  15265.970
      9340     301.486     -0.034     54.485   3807.374   3891.241   3843.116   3687.767     48.348      1.301    217.343  15265.972
      9345     301.489     -0.034     54.485   3807.353   3891.197   3843.110   3687.752     48.350      1.295    217.379  15265.973
      9350     301.492     -0.035     54.485   3807.331   3891.153   3843.104   3687.736     48.352      1.289    217.415  15265.974
      9355     301.495     -0.035     54.486   3807.309   3891.107   3843.098   3687.720     48.354      1.283    217.452  15265.975
      9360     301.498     -0.035     54.486   3807.286   3891.060   3843.093   3687.704     48.356      1.277    217.490  15265.976
      9365     301.501     -0.036     54.486   3807.262   3891.012   3843.088   3687.687     48.357      1.272    217.527  15265.977
      9370     301.504     -0.036     54.486   3807.238   3890.962   3843.083   3687.669     48.359      1.266    217.566  15265.978
      9375     301.507     -0.036     54.487   3807.214   3890.912   3843.078   3687.651     48.360      1.261    217.605  15265.979
      9380     301.510     -0.037     54.487   3807.189   3890.860   3843.074   3687.632     48.361      1.256    217.644  15265.980
      9385     301.513     -0.037     54.487   3807.163   3890.806   3843.070   3687.613     48.362      1.251    217.684  15265.981
      9390     301.516     -0.037     54.487   3807.137   3890.752   3843.066   3687.593     48.363      1.246    217.724  15265.982
      9395     301.519     -0.037     54.488   3807.110   3890.695   3843.063   3687.572     48.363      1.241    217.765  15265.983
      9400     301.522     -0.038     54.488   3807.083   3890.638   3843.060   3687.551     48.363      1.237    217.806  15265.984
      9405     301.525     -0.038     54.488   3807.055   3890.579   3843.057   3687.529     48.363      1.233    217.847  15265.986
      9410     301.529     -0.038     54.488   3807.026   3890.518   3843.055   3687.506     48.363      1.228    217.889  15265.987
      9415     301.532     -0.039     54.489   3806.997   3890.456   3843.053   3687.482     48.363      1.224    217.932  15265.988
      9420     301.535     -0.039     54.489   3806.967   3890.393   3843.051   3687.458     48.363      1.220    217.975  15265.989
      9425     301.538     -0.039     54.489   3806.937   3890.327   3843.050   3687.432     48.362      1.216    218.019  15265.990
      9430     301.542     -0.040     54.489   3806.906   3890.260   3843.050   3687.406     48.361      1.213    218.062  15265.991
      9435     301.545     -0.040     54.490   3806.874   3890.192   3843.050   3687.380     48.360      1.209    218.107  15265.992
      9440     301.548     -0.041     54.490   3806.841   3890.122   3843.050   3687.352     48.359      1.206    218.152  15265.993
      9445     301.552     -0.041     54.490   3806.808   3890.050   3843.051   3687.323     48.357      1.202    218.197  15265.994
      9450     301.555     -0.041     54.491   3806.774   3889.976   3843.053   3687.294     48.355      1.199    218.243  15265.995
      9455     301.559     -0.042     54.491   3806.740   3889.901   3843.055   3687.264     48.353      1.196    218.289  15265.996
      9460     301.562     -0.042     54.491   3806.705   3889.824   3843.058   3687.232     48.351      1.193    218.335  15265.997
      9465     301.566     -0.042     54.491   3806.669   3889.744   3843.061   3687.200     48.349      1.190    218.382  15265.998
      9470     301.569     -0.043     54.492   3806.632   3889.663   3843.065   3687.167     48.346      1.188    218.430  15266.000
      9475     301.573     -0.043     54.492   3806.594   3889.580   3843.070   3687.133     48.343      1.185    218.477  15266.001
      9480     301.577     -0.044     54.492   3806.556   3889.495   3843.075   3687.097     48.340      1.183    218.525  15266.002
      9485     301.580     -0.044     54.492   3806.517   3889.408   3843.081   3687.061     48.336      1.181    218.574  15266.003
      9490     301.584     -0.044     54.493   3806.477   3889.319   3843.088   3687.024     48.332      1.179    218.623  15266.004
      9495     301.588     -0.045     54.493   3806.436   3889.228   3843.095   3686.985     48.328      1.177    218.672  15266.005
      9500     301.591     -0.045     54.493   3806.394   3889.135   3843.103   3686.946     48.324      1.175    218.722  15266.006
      9505     301.595     -0.046     54.493   3806.352   3889.039   3843.112   3686.905     48.319      1.173    218.772  15266.007
      9510     301.599     -0.046     54.494   3806.309   3888.941   3843.122   3686.863     48.314      1.171    218.822  15266.008
      9515     301.603     -0.047     54.494   3806.265   3888.841   3843.133   3686.820     48.309      1.170    218.873  15266.009
      9520     301.607     -0.047     54.494   3806.219   3888.739   3843.144   3686.775     48.304      1.169    218.924  15266.010
      9525     301.611     -0.047     54.494   3806.173   3888.634   3843.157   3686.730     48.298      1.168    218.975  15266.012
      9530     301.615     -0.048     54.495   3806.126   3888.527   3843.170   3686.683     48.291      1.167    219.026  15266.013
      9535     301.619     -0.048     54.495   3806.079   3888.417   3843.184   3686.635     48.285      1.166    219.078  15266.014
      9540     301.623     -0.049     54.495   3806.030   3888.304   3843.199   3686.585     48.278      1.165    219.130  15266.015
      9545     301.627     -0.049     54.495   3805.980   3888.190   3843.216   3686.534     48.270      1.164    219.183  15266.016
      9550     301.631     -0.050     54.496   3805.929   3888.072   3843.233   3686.482     48.263      1.164    219.235  15266.017
      9555     301.635     -0.050     54.496   3805.877   3887.952   3843.251   3686.428     48.255      1.164    219.288  15266.018
      9560     301.639     -0.051     54.496   3805.824   3887.829   3843.270   3686.373     48.246      1.163    219.341  15266.019
      9565     301.644     -0.051     54.496   3805.770   3887.703   3843.291   3686.317     48.237      1.163    219.394  15266.020
      9570     301.648     -0.052     54.497   3805.715   3887.575   3843.312   3686.259     48.228      1.164    219.448  15266.021
      9575     301.652     -0.052     54.497   3805.659   3887.443   3843.335   3686.199     48.218      1.164    219.501  15266.022
      9580     301.657     -0.053     54.497   3805.602   3887.308   3843.359   3686.138     48.208      1.164    219.555  15266.024
      9585     301.661     -0.053     54.497   3805.543   3887.171   3843.384   3686.075     48.197      1.165    219.609  15266.025
      9590     301.665     -0.054     54.498   3805.484   3887.030   3843.410   3686.011     48.186      1.166    219.663  15266.026
      9595     301.670     -0.055     54.498   3805.423   3886.886   3843.437   3685.945     48.174      1.167    219.716  15266.027
      9600     301.675     -0.055     54.498   3805.361   3886.739   3843.466   3685.877     48.162      1.168    219.771  15266.028
      9605     301.679     -0.056     54.498   3805.298   3886.589   3843.496   3685.808     48.149      1.170    219.825  15266.029
      9610     301.684     -0.056     54.499   3805.233   3886.435   3843.527   3685.737     48.136      1.171    219.879  15266.030
      9615     301.689     -0.057     54.499   3805.167   3886.278   3843.559   3685.664     48.122      1.173    219.933  15266.031
      9620     301.693     -0.057     54.499   3805.100   3886.118   3843.593   3685.590     48.108      1.175    219.987  15266.032
      9625     301.698     -0.058     54.499   3805.032   3885.954   3843.628   3685.514     48.093      1.177    220.041  15266.033
      9630     301.703     -0.059     54.500   3804.962   3885.786   3843.665   3685.435     48.077      1.180    220.095  15266.035
      9635     301.708     -0.059     54.500   3804.891   3885.614   3843.703   3685.355     48.061      1.182    220.149  15266.036
      9640     301.713     -0.060     54.500   3804.818   3885.439   3843.742   3685.274     48.044      1.185    220.202  15266.037
      9645     301.718     -0.061     54.501   3804.744   3885.260   3843.783   3685.190     48.027      1.189    220.256  15266.038
      9650     301.723     -0.061     54.501   3804.669   3885.077   3843.825   3685.104     48.009      1.192    220.309  15266.039
      9655     301.728     -0.062     54.501   3804.592   3884.890   3843.869   3685.016     47.990      1.196    220.362  15266.040
      9660     301.734     -0.063     54.501   3804.513   3884.699   3843.914   3684.927     47.970      1.200    220.415  15266.041
      9665     301.739     -0.063     54.502   3804.433   3884.503   3843.961   3684.835     47.950      1.204    220.468  15266.042
      9670     301.744     -0.064     54.502   3804.351   3884.304   3844.009   3684.741     47.929      1.209    220.520  15266.043
      9675     301.750     -0.065     54.502   3804.268   3884.100   3844.059   3684.645     47.908      1.214    220.572  15266.045
      9680     301.755     -0.066     54.502   3804.183   3883.891   3844.111   3684.548     47.885      1.220    220.624  15266.046
      9685     301.761     -0.066     54.503   3804.096   3883.678   3844.164   3684.448     47.862      1.226    220.675  15266.047
      9690     301.767     -0.067     54.503   3804.008   3883.460   3844.218   3684.345     47.837      1.232    220.726  15266.048
      9695     301.772     -0.068     54.503   3803.918   3883.238   3844.274   3684.241     47.812      1.238    220.777  15266.049
      9700     301.778     -0.069     54.503   3803.826   3883.011   3844.332   3684.134     47.787      1.246    220.827  15266.050
      9705     301.784     -0.069     54.504   3803.732   3882.779   3844.391   3684.025     47.760      1.253    220.876  15266.051
      9710     301.790     -0.070     54.504   3803.636   3882.542   3844.452   3683.914     47.732      1.261    220.925  15266.052
      9715     301.796     -0.071     54.504   3803.538   3882.299   3844.515   3683.801     47.704      1.270    220.973  15266.053
      9720     301.802     -0.072     54.504   3803.439   3882.052   3844.579   3683.685     47.674      1.279    221.021  15266.055
      9725     301.808     -0.073     54.505   3803.337   3881.799   3844.645   3683.567     47.644      1.288    221.068  15266.056
      9730     301.814     -0.074     54.505   3803.233   3881.540   3844.712   3683.447     47.612      1.299    221.114  15266.057
      9735     301.821     -0.075     54.505   3803.127   3881.276   3844.781   3683.324     47.580      1.310    221.160  15266.058
      9740     301.827     -0.075     54.505   3803.019   3881.007   3844.852   3683.199     47.546      1.321    221.205  15266.059
      9745     301.834     -0.076     54.506   3802.909   3880.731   3844.924   3683.071     47.512      1.333    221.249  15266.060
      9750     301.840     -0.077     54.506   3802.796   3880.450   3844.998   3682.941     47.476      1.346    221.292  15266.061
      9755     301.847     -0.078     54.506   3802.681   3880.162   3845.074   3682.808     47.439      1.360    221.335  15266.062
      9760     301.854     -0.079     54.507   3802.564   3879.868   3845.151   3682.673     47.401      1.375    221.376  15266.063
      9765     301.861     -0.080     54.507   3802.444   3879.568   3845.230   3682.535     47.363      1.390    221.417  15266.065
      9770     301.868     -0.081     54.507   3802.322   3879.261   3845.310   3682.395     47.323      1.406    221.456  15266.066
      9775     301.875     -0.082     54.507   3802.197   3878.948   3845.392   3682.252     47.281      1.424    221.495  15266.067
      9780     301.882     -0.083     54.508   3802.070   3878.628   3845.475   3682.106     47.239      1.442    221.533  15266.068
      9785     301.889     -0.084     54.508   3801.939   3878.300   3845.560   3681.958     47.196      1.461    221.569  15266.069
      9790     301.897     -0.085     54.508   3801.807   3877.966   3845.646   3681.807     47.151      1.481    221.604  15266.070
      9795     301.904     -0.087     54.508   3801.671   3877.624   3845.734   3681.654     47.105      1.503    221.639  15266.071
      9800     301.912     -0.088     54.509   3801.532   3877.275   3845.823   3681.498     47.058      1.525    221.672  15266.072
      9805     301.920     -0.089     54.509   3801.390   3876.918   3845.914   3681.338     47.010      1.549    221.704  15266.074
      9810     301.928     -0.090     54.509   3801.245   3876.553   3846.006   3681.177     46.961      1.575    221.734  15266.075
      9815     301.936     -0.091     54.509   3801.097   3876.180   3846.100   3681.012     46.910      1.601    221.763  15266.076
      9820     301.944     -0.092     54.510   3800.946   3875.799   3846.194   3680.845     46.858      1.629    221.791  15266.077
      9825     301.952     -0.094     54.510   3800.791   3875.410   3846.290   3680.675     46.805      1.659    221.818  15266.078
      9830     301.961     -0.095     54.510   3800.633   3875.011   3846.387   3680.501     46.751      1.690    221.843  15266.079
      9835     301.969     -0.096     54.510   3800.472   3874.604   3846.485   3680.325     46.696      1.722    221.867  15266.080
      9840     301.978     -0.097     54.511   3800.306   3874.187   3846.585   3680.147     46.639      1.757    221.890  15266.081
      9845     301.987     -0.099     54.511   3800.137   3873.761   3846.685   3679.965     46.581      1.793    221.910  15266.083
      9850     301.996     -0.100     54.511   3799.964   3873.326   3846.786   3679.780     46.523      1.831    221.930  15266.084
      9855     302.005     -0.102     54.512   3799.787   3872.880   3846.889   3679.592     46.463      1.871    221.948  15266.085
      9860     302.015     -0.103     54.512   3799.606   3872.424   3846.992   3679.401     46.402      1.914    221.964  15266.086
      9865     302.024     -0.104     54.512   3799.420   3871.957   3847.096   3679.207     46.340      1.958    221.979  15266.087
      9870     302.034     -0.106     54.512   3799.230   3871.480   3847.200   3679.010     46.277      2.004    221.992  15266.088
      9875     302.044     -0.107     54.513   3799.036   3870.991   3847.305   3678.810     46.213      2.053    222.004  15266.089
      9880     302.054     -0.109     54.513   3798.836   3870.491   3847.411   3678.607     46.148      2.105    222.014  15266.090
      9885     302.064     -0.111     54.513   3798.632   3869.979   3847.517   3678.400     46.082      2.159    222.023  15266.092
      9890     302.074     -0.112     54.513   3798.423   3869.454   3847.624   3678.191     46.016      2.215    222.029  15266.093
      9895     302.085     -0.114     54.514   3798.208   3868.917   3847.730   3677.978     45.948      2.275    222.035  15266.094
      9900     302.096     -0.116     54.514   3797.988   3868.366   3847.837   3677.762     45.881      2.337    222.038  15266.095
      9905     302.107     -0.117     54.514   3797.763   3867.802   3847.944   3677.542     45.812      2.402    222.040  15266.096
      9910     302.119     -0.119     54.514   3797.531   3867.223   3848.051   3677.319     45.743      2.470    222.040  15266.097
      9915     302.130     -0.121     54.515   3797.294   3866.630   3848.158   3677.093     45.674      2.542    222.039  15266.098
      9920     302.142     -0.123     54.515   3797.050   3866.022   3848.264   3676.863     45.604      2.617    222.036  15266.100
      9925     302.154     -0.125     54.515   3796.799   3865.398   3848.370   3676.629     45.535      2.696    222.031  15266.101
      9930     302.167     -0.127     54.516   3796.542   3864.758   3848.475   3676.392     45.465      2.778    222.025  15266.102
      9935     302.179     -0.129     54.516   3796.277   3864.101   3848.579   3676.152     45.396      2.864    222.017  15266.103
      9940     302.192     -0.131     54.516   3796.005   3863.426   3848.683   3675.907     45.327      2.954    222.007  15266.104
      9945     302.205     -0.133     54.516   3795.726   3862.732   3848.785   3675.659     45.258      3.048    221.996  15266.105
      9950     302.219     -0.135     54.517   3795.438   3862.020   3848.887   3675.407     45.190      3.147    221.983  15266.106
      9955     302.233     -0.137     54.517   3795.142   3861.287   3848.987   3675.151     45.123      3.250    221.969  15266.107
      9960     302.247     -0.140     54.517   3794.837   3860.534   3849.085   3674.891     45.058      3.358    221.954  15266.109
      9965     302.262     -0.142     54.517   3794.523   3859.759   3849.181   3674.627     44.993      3.470    221.937  15266.110
      9970     302.277     -0.145     54.518   3794.199   3858.961   3849.276   3674.359     44.930      3.588    221.918  15266.111
      9975     302.292     -0.147     54.518   3793.865   3858.139   3849.368   3674.087     44.870      3.711    221.898  15266.112
      9980     302.308     -0.150     54.518   3793.520   3857.292   3849.459   3673.810     44.811      3.839    221.877  15266.113
      9985     302.325     -0.152     54.518   3793.165   3856.419   3849.546   3673.529     44.755      3.973    221.855  15266.114
      9990     302.341     -0.155     54.519   3792.797   3855.519   3849.631   3673.243     44.702      4.112    221.832  15266.115
      9995     302.359     -0.158     54.519   3792.418   3854.589   3849.712   3672.952     44.652      4.258    221.807  15266.117
     10000     302.376     -0.161     54.519   3792.025   3853.629   3849.790   3672.657     44.607      4.410    221.782  15266.118
Loop time of 2.78243 on 1 procs for 10000 steps with 1400 atoms

Performance: 1.553 ns/day, 15.458 hours/ns, 3593.983 timesteps/s
14.0% CPU use with 1 MPI tasks x 1 OpenMP threads

MPI task timing breakdown:
Section |  min time  |  avg time  |  max time  |%varavg| %total
---------------------------------------------------------------
Pair    | 1.2451     | 1.2451     | 1.2451     |   0.0 | 44.75
Neigh   | 0.014039   | 0.014039   | 0.014039   |   0.0 |  0.50
Comm    | 0.067655   | 0.067655   | 0.067655   |   0.0 |  2.43
Output  | 0.70005    | 0.70005    | 0.70005    |   0.0 | 25.16
Modify  | 0.6952     | 0.6952     | 0.6952     |   0.0 | 24.99
Other   |            | 0.06039    |            |       |  2.17

Nlocal:           1400 ave        1400 max        1400 min
Histogram: 1 0 0 0 0 0 0 0 0 0
Nghost:           1320 ave        1320 max        1320 min
Histogram: 1 0 0 0 0 0 0 0 0 0
Neighs:           5278 ave        5278 max        5278 min
Histogram: 1 0 0 0 0 0 0 0 0 0
FullNghs:        10546 ave       10546 max       10546 min
Histogram: 1 0 0 0 0 0 0 0 0 0

Total # of neighbors = 10546
Ave neighs/atom = 7.5328571
Neighbor list builds = 21
Dangerous builds = 0
###Write a binary restart file of the current state of the simulation
write_restart restart.equil_NPT
System init for write_restart ...
Generated 0 of 0 mixed pair_coeff terms from geometric mixing rule
undump 1a
unfix 1f	## NPT run complete



Total wall time: 0:00:02
