       N       E                     dE             d eps       ncg     rms          rms(c)
DAV:   1     0.259623677138E+03    0.25962E+03   -0.17682E+04  2272   0.204E+03
DAV:   2    -0.105893314121E+02   -0.27021E+03   -0.25983E+03  2240   0.358E+02
DAV:   3    -0.257271911455E+02   -0.15138E+02   -0.14581E+02  2344   0.115E+02
DAV:   4    -0.259493574262E+02   -0.22217E+00   -0.22197E+00  2476   0.143E+01
DAV:   5    -0.259570040827E+02   -0.76467E-02   -0.76305E-02  2680   0.209E+00    0.201E+01
RMM:   6    -0.230162623683E+02    0.29407E+01   -0.29796E+01  2240   0.618E+01    0.123E+01
RMM:   7    -0.219348529299E+02    0.10814E+01   -0.54312E+00  2240   0.286E+01    0.419E+00
RMM:   8    -0.218631952179E+02    0.71658E-01   -0.95354E-02  2300   0.222E+00    0.180E+00
RMM:   9    -0.218574857666E+02    0.57095E-02   -0.15264E-02  2258   0.979E-01    0.457E-01
RMM:  10    -0.218559034900E+02    0.15823E-02   -0.21762E-03  1615   0.313E-01    0.167E-01
RMM:  11    -0.218554717847E+02    0.43171E-03   -0.51892E-04  1326   0.243E-01
   1 F= -.21855472E+02 E0= -.21855472E+02  d E =-.218555E+02  mag=     2.3440
