LAMMPS (23 Jun 2022 - Update 1)
OMP_NUM_THREADS environment is not set. Defaulting to 1 thread. (src/comm.cpp:98)
  using 1 OpenMP thread(s) per MPI task
Loaded 1 plugins from C:\Users\morga\AppData\Local\LAMMPS 64-bit 23Jun2022\plugins
#### set simulation box #####
units metal                        ## use metal unit system - see lammps manual
boundary p p p
atom_style atomic                  ## default atom style for metals

read_restart restart.equil_NPT     ## read in restart file
Reading restart file ...
  restart file = 23 Jun 2022, LAMMPS = 23 Jun 2022
  restoring atom style atomic from restart
  orthogonal box = (-0.042790004 -0.11981201 -0.042790004) to (17.64279 49.399812 17.64279)
  1 by 1 by 1 MPI processor grid
  pair style eam stores no restart info
  1400 atoms
  read_restart CPU = 0.005 seconds


pair_style eam                     ## set interatomic potential style to be EAM
pair_coeff * * Ni_u3.eam
Reading eam potential file Ni_u3.eam with DATE: 2007-06-11

neighbor 0.3 bin ## define parameters for neighbor list
neigh_modify delay 5 ## define parameters for neighbor list

compute c1 all pe/atom                              ### compute potential energy per atom
compute c2 all cna/atom 2.005                       ### compute CNA per atom
compute c3 all stress/atom	NULL                    ### compute stress tensor per atom



thermo 5 ## Output system information every 5 timesteps
#### Output step No., temperature, potential energy, total energy,
#### total pressure, pressure component, box volume
thermo_style custom step temp pe etotal press pxx pyy pzz pxy pxz pyz vol
thermo_modify format float %10.3f ## set output format
timestep 0.005 ## set timestep size

### system deform by NVT+Deform ###
reset_timestep 0
dump 1a all custom 200 dump_FCCNi_deform_001.atom id type x y z c_c1 c_c2 c_c3[1] c_c3[2] c_c3[3]
#Using NVT to control temperature
fix 1 all nvt temp 1000 1000 5
#Using "fix deform" to perform tensile test along y direction
fix 2 all deform 1 y erate 0.005 remap x
run  50000	## run the simulation for 50000 steps
Unused restart file global fix info:
  fix style: npt, fix ID: 1f
Neighbor list info ...
  update every 1 steps, delay 5 steps, check yes
  max neighbors/atom: 2000, page size: 100000
  master list distance cutoff = 5.1
  ghost atom cutoff = 5.1
  binsize = 2.55, bins = 7 20 7
  2 neighbor lists, perpetual/occasional/extra = 1 1 0
  (1) pair eam, perpetual
      attributes: half, newton on
      pair build: half/bin/atomonly/newton
      stencil: half/bin/3d
      bin: standard
  (2) compute cna/atom, occasional
      attributes: full, newton on
      pair build: full/bin/atomonly
      stencil: full/bin/3d
      bin: standard
Per MPI rank memory allocation (min/avg/max) = 8.348 | 8.348 | 8.348 Mbytes
   Step          Temp          PotEng         TotEng         Press           Pxx            Pyy            Pzz            Pxy            Pxz            Pyz           Volume    
         0     296.853  -6172.581  -6118.899  -1499.418  -1410.228  -1154.451  -1933.574    752.942    339.669    595.935  15488.735
         5     310.750  -6175.114  -6118.920  -2394.239  -2509.342  -2275.771  -2397.604   -120.493    338.104    366.763  15490.671
        10     300.113  -6173.156  -6118.885  -2033.919  -1903.578  -2286.452  -1911.728     -7.447    427.762    226.832  15492.607
        15     291.885  -6171.655  -6118.872  -1852.195  -1779.415  -2030.939  -1746.230    111.376    708.115    316.461  15494.543
        20     299.976  -6173.114  -6118.868  -2549.327  -2722.085  -2518.466  -2407.430    364.535    664.904    321.289  15496.480
        25     305.339  -6174.075  -6118.859  -3016.073  -3072.803  -3121.100  -2854.317    210.546    258.994    123.333  15498.416
        30     298.622  -6172.820  -6118.819  -2825.636  -2753.096  -3204.001  -2519.810    295.430    -63.331    103.485  15500.352
        35     304.127  -6173.815  -6118.819  -3334.896  -3957.857  -3046.795  -3000.036    305.022     76.485    214.155  15502.288
        40     299.645  -6172.972  -6118.785  -3361.694  -3799.193  -3202.630  -3083.260    393.359   -204.748    326.309  15504.224
        45     296.038  -6172.285  -6118.751  -3363.147  -3381.629  -4016.129  -2691.684    722.732    -37.458    188.818  15506.160
        50     307.195  -6174.297  -6118.745  -4161.703  -3913.040  -4355.834  -4216.236    178.822    307.430     38.643  15508.096
        55     301.700  -6173.262  -6118.704  -4074.344  -3460.340  -4161.784  -4600.907    155.180    129.311    461.076  15510.032
        60     293.446  -6171.729  -6118.664  -3897.467  -3402.540  -4660.432  -3629.430    539.690    359.393    782.700  15511.968
        65     297.928  -6172.507  -6118.631  -4225.485  -3966.161  -5212.419  -3497.876    477.354    505.439    -72.256  15513.904
        70     311.080  -6174.865  -6118.611  -5187.710  -4645.866  -6598.179  -4319.085    141.429    244.816   -408.888  15515.840
        75     301.836  -6173.147  -6118.564  -4862.873  -4494.892  -5812.994  -4280.733    512.192    141.416    160.425  15517.777
        80     286.618  -6170.327  -6118.496  -4343.374  -4429.960  -4985.745  -3614.418    391.622    588.289    263.677  15519.713
        85     301.389  -6172.991  -6118.489  -5343.706  -5162.436  -6317.880  -4550.802    204.217     51.108   -118.053  15521.649
        90     304.491  -6173.488  -6118.426  -5609.878  -5128.648  -6665.380  -5035.606    273.650   -153.307   -235.514  15523.585
        95     305.712  -6173.676  -6118.393  -5950.182  -5475.797  -7005.162  -5369.585   -282.239    450.346   -236.321  15525.521
       100     292.839  -6171.266  -6118.311  -5367.747  -4864.526  -6629.269  -4609.446   -299.646    204.714   -463.252  15527.457
       105     305.868  -6173.609  -6118.297  -6349.669  -5711.558  -7458.301  -5879.147   -129.461   -285.507   -144.848  15529.393
       110     297.669  -6172.043  -6118.214  -6142.965  -5054.229  -7174.901  -6199.764    -16.062   -403.290    352.580  15531.329
       115     301.880  -6172.768  -6118.177  -6583.050  -5398.701  -8163.495  -6186.954    -72.692    -95.002   -152.106  15533.265
       120     303.489  -6172.995  -6118.113  -6853.384  -6000.301  -8895.262  -5664.588    302.363   -304.036    -76.233  15535.201
       125     298.956  -6172.105  -6118.043  -6742.166  -5706.501  -8391.427  -6128.572    -40.118    347.582    423.625  15537.137
       130     304.347  -6173.033  -6117.996  -7280.215  -6177.657  -9021.087  -6641.901   -341.246   -348.038    383.251  15539.074
       135     297.768  -6171.754  -6117.907  -7078.439  -6458.159  -9608.674  -5168.483    183.225   -184.332    -38.211  15541.010
       140     306.416  -6173.287  -6117.876  -7822.619  -7248.526  -9989.664  -6229.667    143.982    -33.150   -209.839  15542.946
       145     296.186  -6171.333  -6117.772  -7385.385  -6305.791  -8958.995  -6891.368   -148.133   -224.451     10.170  15544.882
       150     303.282  -6172.574  -6117.730  -7997.631  -7092.112  -9620.331  -7280.449    573.541    -68.571    406.450  15546.818
       155     298.518  -6171.616  -6117.634  -7909.770  -7482.514  -9830.334  -6416.460    790.561    -14.478    186.243  15548.754
       160     303.124  -6172.392  -6117.576  -8338.453  -7536.793 -10568.128  -6910.438    223.572    -86.789    832.286  15550.690
       165     302.877  -6172.272  -6117.502  -8539.288  -7205.865 -10523.110  -7888.889    660.343    -73.187    771.522  15552.626
       170     297.462  -6171.203  -6117.411  -8414.207  -7050.423 -10496.320  -7695.877    574.014   -327.068    538.816  15554.562
       175     306.317  -6172.753  -6117.360  -9110.511  -7953.159 -11690.521  -7687.852     95.135    303.394    740.650  15556.498
       180     296.674  -6170.901  -6117.252  -8749.962  -7958.124 -11124.635  -7167.126    378.213    -78.247    223.790  15558.434
       185     303.396  -6172.063  -6117.198  -9364.596  -8217.038 -11819.282  -8057.469   -139.061   -357.680    118.636  15560.371
       190     301.422  -6171.601  -6117.093  -9399.746  -7980.733 -11675.073  -8543.432   -291.452   -262.340     30.310  15562.307
       195     308.178  -6172.769  -6117.039  -9969.228  -8926.278 -12290.822  -8690.583    162.640    -24.076     34.478  15564.243
       200     296.463  -6170.536  -6116.925  -9516.106  -9008.317 -11949.825  -7590.177    388.166    -17.980    162.853  15566.179
       205     304.655  -6171.957  -6116.865 -10176.194  -9280.801 -12394.473  -8853.308   -269.628   -376.795   -293.111  15568.115
       210     305.057  -6171.937  -6116.772 -10302.406  -9376.950 -12516.915  -9013.353   -246.758   -133.488    144.576  15570.051
       215     304.400  -6171.739  -6116.692 -10608.311  -9812.498 -12789.289  -9223.144    158.018     67.987   -227.968  15571.987
       220     295.625  -6170.057  -6116.597 -10237.004  -8602.644 -12823.999  -9284.369   -164.712     31.956   -233.323  15573.923
       225     301.588  -6171.052  -6116.515 -10741.030  -9387.549 -13385.712  -9449.829     71.549     -0.527    337.519  15575.859
       230     310.641  -6172.618  -6116.443 -11424.030 -10845.950 -14177.778  -9248.361   -199.249    185.713    235.977  15577.795
       235     298.270  -6170.272  -6116.335 -10881.475  -9695.414 -13473.338  -9475.673    159.383    271.443    876.101  15579.731
       240     301.216  -6170.728  -6116.258 -11322.858  -9826.103 -14084.397 -10058.073    128.882    442.105    406.552  15581.668
       245     308.340  -6171.935  -6116.176 -11837.351 -10593.574 -15220.987  -9697.493      0.034    272.221    -28.978  15583.604
       250     304.809  -6171.203  -6116.083 -11904.372 -10734.362 -15102.519  -9876.235    687.615     15.775    299.486  15585.540
       255     296.810  -6169.659  -6115.985 -11636.200 -10375.322 -14402.302 -10130.977     52.871     17.135    333.612  15587.476
       260     310.030  -6171.989  -6115.925 -12556.921 -11108.091 -15508.617 -11054.056    -26.025    470.347   -668.976  15589.412
       265     302.513  -6170.519  -6115.814 -12302.088 -11254.592 -15488.785 -10162.888     56.961    766.484   -590.227  15591.348
       270     301.935  -6170.338  -6115.738 -12384.351 -11225.998 -15616.098 -10310.958    232.885     72.671    -61.873  15593.284
       275     308.423  -6171.428  -6115.654 -12977.810 -11122.433 -16182.803 -11628.194    633.526    -84.487    107.225  15595.220
       280     303.339  -6170.416  -6115.562 -12968.922 -11200.626 -16248.944 -11457.195    199.800    725.634     38.442  15597.156
       285     298.703  -6169.488  -6115.472 -12841.884 -10953.155 -16355.887 -11216.610    214.464   -319.987    251.558  15599.092
       290     306.415  -6170.807  -6115.397 -13440.429 -12004.610 -16714.457 -11602.222    -39.212    133.536    170.627  15601.028
       295     306.572  -6170.752  -6115.313 -13653.790 -12060.523 -16936.299 -11964.549    -25.482    161.188    -15.565  15602.965
       300     298.000  -6169.097  -6115.208 -13391.995 -11518.842 -17193.657 -11463.485    -91.759   -261.050    383.400  15604.901
       305     310.188  -6171.245  -6115.152 -14207.936 -12620.244 -18108.789 -11894.775   -265.030    374.192    153.911  15606.837
       310     306.807  -6170.522  -6115.041 -14270.149 -12596.840 -18424.995 -11788.613     94.599   -164.306   -196.550  15608.773
       315     305.074  -6170.145  -6114.977 -14317.419 -12523.156 -18305.798 -12123.303    107.403   -300.012   -347.777  15610.709
       320     296.736  -6168.519  -6114.859 -14055.316 -12156.087 -17856.342 -12153.520    -29.035   -104.413   -307.460  15612.645
       325     308.964  -6170.687  -6114.815 -14927.379 -13082.478 -19088.486 -12611.172    611.497    102.241    142.001  15614.581
       330     303.112  -6169.515  -6114.702 -14792.639 -13088.795 -18731.366 -12557.756    -96.214     82.024    121.552  15616.517
       335     305.873  -6169.933  -6114.620 -15107.613 -13368.598 -19187.076 -12767.166   -254.000     25.352    278.950  15618.453
       340     312.738  -6171.115  -6114.561 -15662.011 -13676.317 -20222.897 -13086.818    -26.220    -44.203    293.333  15620.389
       345     300.057  -6168.696  -6114.435 -15224.558 -13017.339 -19424.851 -13231.482   -264.259   -388.273    210.970  15622.325
       350     304.545  -6169.451  -6114.379 -15587.930 -13841.627 -19389.834 -13532.328   -641.879    102.012    660.242  15624.262
       355     305.971  -6169.620  -6114.290 -15906.015 -14564.992 -19786.537 -13366.516   -864.150    213.353    905.690  15626.198
       360     303.130  -6169.016  -6114.200 -15923.348 -14260.630 -19955.796 -13553.617   -503.255   -655.726    749.806  15628.134
       365     302.428  -6168.810  -6114.121 -16101.205 -14281.648 -20473.388 -13548.578   -239.528   -593.953    632.950  15630.070
       370     305.520  -6169.279  -6114.031 -16416.650 -14454.872 -20894.077 -13901.001    180.804     64.415    203.147  15632.006
       375     310.020  -6170.015  -6113.953 -16776.790 -14646.765 -21405.944 -14277.661   -103.862    -39.111    500.523  15633.942
       380     306.554  -6169.299  -6113.863 -16859.620 -14884.109 -21105.874 -14588.879   -212.020   -195.390    593.532  15635.878
       385     301.192  -6168.232  -6113.767 -16734.449 -14900.492 -20874.250 -14428.606    227.289    158.452    151.964  15637.814
       390     305.810  -6168.997  -6113.696 -17160.758 -15352.113 -21729.692 -14400.468    760.942    272.302    194.461  15639.750
       395     308.741  -6169.435  -6113.603 -17472.460 -15015.027 -22468.216 -14934.138    616.432   -172.714    321.076  15641.686
       400     313.187  -6170.161  -6113.525 -17856.383 -15421.040 -22927.707 -15220.401    411.636    337.376    137.973  15643.622
       405     307.591  -6169.057  -6113.434 -17805.098 -15699.277 -22447.868 -15268.149     58.582    201.679    302.547  15645.559
       410     302.036  -6167.957  -6113.339 -17693.777 -15236.633 -22645.955 -15198.742    373.017   -175.484    627.597  15647.495
       415     306.710  -6168.721  -6113.257 -18170.929 -15600.617 -23395.440 -15516.729    173.860    729.337    626.478  15649.431
       420     306.736  -6168.634  -6113.166 -18290.695 -16088.094 -23076.617 -15707.373   -313.807    587.436    692.097  15651.367
       425     302.725  -6167.818  -6113.075 -18184.032 -15567.101 -23324.963 -15660.031    -71.967    108.589    711.739  15653.303
       430     303.606  -6167.877  -6112.974 -18530.262 -15752.137 -23781.807 -16056.843   -522.163    210.445    473.550  15655.239
       435     314.274  -6169.742  -6112.910 -19286.067 -16759.149 -24588.552 -16510.501   -697.201    350.879    492.734  15657.175
       440     303.637  -6167.704  -6112.796 -18845.585 -16358.216 -24272.915 -15905.624   -280.321   -105.115    591.259  15659.111
       445     303.376  -6167.569  -6112.708 -19079.535 -16684.236 -24460.451 -16093.916    -14.551    -40.683    322.447  15661.047
       450     309.238  -6168.543  -6112.622 -19519.751 -16455.190 -25182.729 -16921.335   -175.319    418.365     54.593  15662.983
       455     313.009  -6169.130  -6112.527 -19892.806 -16533.130 -25429.480 -17715.808   -447.187   -173.193    127.942  15664.920
       460     309.020  -6168.314  -6112.432 -19932.407 -17049.091 -25569.547 -17178.583   -190.086    -89.982    -87.523  15666.856
       465     301.334  -6166.811  -6112.320 -19580.145 -16701.308 -25371.872 -16667.255   -242.931    -23.014    109.340  15668.792
       470     313.602  -6168.960  -6112.250 -20520.553 -17511.069 -26024.287 -18026.303    272.115    -57.916    374.268  15670.728
       475     302.905  -6166.910  -6112.135 -20181.512 -16641.758 -26001.916 -17900.862    192.700    168.100     27.183  15672.664
       480     301.123  -6166.489  -6112.036 -20213.194 -17003.186 -26181.366 -17455.032   -191.016    -25.516     73.367  15674.600
       485     310.313  -6168.064  -6111.949 -20889.602 -18008.918 -27016.544 -17643.342    -77.618     85.864    717.610  15676.536
       490     312.100  -6168.283  -6111.844 -21111.408 -18650.168 -27060.501 -17623.554     84.583    529.001    302.614  15678.472
       495     308.339  -6167.503  -6111.745 -21171.292 -18735.201 -26864.981 -17913.694    181.962    615.464    234.532  15680.408
       500     303.011  -6166.429  -6111.634 -21121.234 -17770.711 -27041.180 -18551.810    257.941     82.704    344.763  15682.344
       505     313.133  -6168.173  -6111.548 -21818.062 -18065.635 -28467.707 -18920.844     68.708    458.990     50.062  15684.280
       510     309.715  -6167.441  -6111.434 -21753.377 -18498.924 -28179.475 -18581.730   -547.260    178.354    224.869  15686.217
       515     302.726  -6166.073  -6111.329 -21575.555 -18307.669 -27624.675 -18794.322     59.500   -237.461    214.776  15688.153
       520     299.290  -6165.336  -6111.214 -21517.584 -18309.034 -27621.502 -18622.215    246.464     -9.373     98.042  15690.089
       525     317.019  -6168.466  -6111.138 -22727.929 -19442.320 -29108.898 -19632.569     40.822   -124.867    367.670  15692.025
       530     318.946  -6168.702  -6111.025 -23009.328 -19781.398 -29201.820 -20044.767    524.172   -275.828    283.667  15693.961
       535     306.383  -6166.308  -6110.904 -22531.358 -19081.242 -28880.312 -19632.521    646.092    -52.843    293.201  15695.897
       540     303.272  -6165.643  -6110.801 -22566.999 -19227.429 -29597.094 -18876.474    -55.589    388.369    324.696  15697.833
       545     309.692  -6166.694  -6110.691 -23036.693 -19534.658 -29930.634 -19644.786   -249.380    -12.294    912.356  15699.769
       550     319.036  -6168.296  -6110.603 -23722.320 -20177.460 -30157.332 -20832.168     29.143    148.673    548.926  15701.705
       555     300.457  -6164.791  -6110.458 -22865.993 -19402.244 -29568.893 -19626.842   -368.770    -67.660    219.402  15703.641
       560     306.047  -6165.708  -6110.365 -23360.085 -19742.978 -30496.805 -19840.473   -629.658    337.554    377.991  15705.577
       565     318.900  -6167.937  -6110.269 -24258.886 -20595.708 -31515.872 -20665.078     32.928   -567.322     69.759  15707.514
       570     305.253  -6165.328  -6110.127 -23676.083 -19896.609 -30634.577 -20497.064    123.729    -35.672    149.298  15709.450
       575     305.203  -6165.215  -6110.023 -23839.238 -20343.075 -30618.080 -20556.559   -242.457   -141.932    301.418  15711.386
       580     313.795  -6166.662  -6109.917 -24474.312 -21158.660 -31142.943 -21121.334    -66.098   -293.211     32.479  15713.322
       585     313.505  -6166.496  -6109.803 -24653.088 -21490.107 -31539.835 -20929.322    381.648    177.548   -635.584  15715.258
       590     307.321  -6165.246  -6109.672 -24470.265 -21139.020 -31702.315 -20569.461    -83.075   -168.492   -491.270  15717.194
       595     315.089  -6166.564  -6109.584 -25100.027 -21444.379 -32168.133 -21687.568    -88.181   -107.649   -596.576  15719.130
       600     303.850  -6164.385  -6109.438 -24663.855 -21008.573 -32202.521 -20780.472    243.990     86.105   -155.853  15721.066
       605     308.640  -6165.154  -6109.341 -25100.217 -21521.438 -32582.136 -21197.077   -125.168    433.029    247.691  15723.002
       610     310.759  -6165.414  -6109.218 -25363.695 -21449.474 -32426.390 -22215.221    -62.163    152.895     51.978  15724.938
       615     310.470  -6165.246  -6109.102 -25468.963 -21496.503 -32942.740 -21967.648     19.807   -155.711     20.415  15726.874
       620     314.270  -6165.820  -6108.989 -25874.599 -22184.643 -33827.294 -21611.860   -267.856    532.499    112.405  15728.811
       625     312.783  -6165.419  -6108.856 -25916.585 -22092.812 -33320.526 -22336.418   -129.186    318.062    -15.413  15730.747
       630     314.675  -6165.642  -6108.738 -26195.589 -22156.897 -33666.484 -22763.387     36.687      2.617     42.487  15732.683
       635     314.777  -6165.557  -6108.634 -26442.815 -22709.544 -34382.717 -22236.185     46.431    256.056    150.800  15734.619
       640     301.196  -6162.945  -6108.478 -25841.149 -22307.186 -33899.161 -21317.099     18.659    417.497   -391.384  15736.555
       645     319.777  -6166.224  -6108.397 -27086.965 -23424.086 -35211.544 -22625.266     13.516    339.974   -181.187  15738.491
       650     309.430  -6164.205  -6108.249 -26583.955 -22576.123 -34698.774 -22476.967    418.274   -126.405     22.662  15740.427
       655     304.708  -6163.220  -6108.118 -26521.992 -22846.865 -34226.012 -22493.099    157.949     90.837     32.073  15742.363
       660     320.556  -6165.995  -6108.028 -27530.186 -23798.563 -35221.928 -23570.068    760.896    431.449    -69.867  15744.299
       665     311.305  -6164.168  -6107.874 -27199.562 -23065.925 -35533.647 -22999.113   1310.580    103.337   -393.056  15746.235
       670     312.183  -6164.212  -6107.758 -27503.331 -23505.946 -36031.517 -22972.531    195.680    153.996    170.220  15748.171
       675     308.135  -6163.343  -6107.621 -27366.213 -23162.093 -35642.506 -23294.040    -63.391    274.136     -5.781  15750.108
       680     317.450  -6164.922  -6107.516 -28160.257 -23629.705 -36756.349 -24094.718    -39.012   -176.436    189.231  15752.044
       685     310.997  -6163.603  -6107.364 -27818.205 -23624.846 -36204.497 -23625.272    171.854    701.970    510.035  15753.980
       690     319.841  -6165.105  -6107.266 -28620.572 -24653.111 -36975.149 -24233.456    376.624    490.047    -22.668  15755.916
       695     310.117  -6163.193  -6107.113 -28148.085 -24168.522 -37055.651 -23220.080    -14.732     28.687    252.226  15757.852
       700     308.730  -6162.820  -6106.991 -28237.531 -24296.953 -37130.901 -23284.739    264.391    573.104    173.537  15759.788
       705     319.468  -6164.653  -6106.882 -29149.466 -25021.533 -37744.576 -24682.289    169.176     93.834   -190.595  15761.724
       710     311.294  -6163.023  -6106.730 -28774.368 -24210.644 -37491.243 -24621.217   -176.876   -205.051   -197.894  15763.660
       715     313.694  -6163.340  -6106.613 -29137.882 -25009.428 -38137.920 -24266.299   -176.383    325.865    -58.562  15765.596
       720     312.878  -6163.048  -6106.469 -29135.892 -25299.188 -38045.193 -24063.295   -718.739   -142.338   -270.065  15767.532
       725     320.891  -6164.395  -6106.366 -29826.077 -25400.039 -38679.446 -25398.748   -513.896   -537.296    205.483  15769.468
       730     304.153  -6161.194  -6106.193 -28960.052 -24246.277 -37383.175 -25250.705   -545.418    277.676    192.994  15771.405
       735     315.506  -6163.152  -6106.097 -29889.542 -25370.932 -38658.532 -25639.162   -211.095    464.132   -225.761  15773.341
       740     318.275  -6163.515  -6105.960 -30246.943 -25958.545 -39443.660 -25338.623    359.287    -41.064   -228.149  15775.277
       745     310.102  -6161.888  -6105.811 -29847.187 -25271.497 -39004.613 -25265.450    511.355    334.008    345.040  15777.213
       750     319.945  -6163.560  -6105.703 -30671.829 -26018.585 -39755.413 -26241.489    645.739    309.208   -266.778  15779.149
       755     313.015  -6162.144  -6105.540 -30334.827 -25988.215 -39417.805 -25598.463    -89.646    -68.363   -272.762  15781.085
       760     322.163  -6163.702  -6105.444 -31118.529 -26655.038 -40747.069 -25953.481    224.540     58.673    199.516  15783.021
       765     308.906  -6161.129  -6105.268 -30495.684 -26041.646 -40102.125 -25343.283    785.911    271.535   -609.882  15784.957
       770     312.975  -6161.759  -6105.162 -30930.249 -26211.855 -40648.043 -25930.848     58.821    136.116    -13.732  15786.893
       775     317.637  -6162.451  -6105.012 -31278.975 -26542.553 -40825.976 -26468.396   -559.271    240.479    104.114  15788.829
       780     322.243  -6163.162  -6104.889 -31666.377 -27190.350 -40900.494 -26908.286    442.941    595.378   -732.753  15790.765
       785     316.842  -6162.039  -6104.743 -31670.733 -26779.217 -41163.541 -27069.442    -92.783    107.278    281.388  15792.702
       790     313.724  -6161.340  -6104.608 -31583.725 -26408.701 -41392.105 -26950.370   -248.664   -115.004    324.258  15794.638
       795     313.583  -6161.179  -6104.472 -31779.658 -27490.909 -40819.873 -27028.192    252.234    114.662   -265.652  15796.574
       800     317.237  -6161.708  -6104.340 -32071.761 -27806.386 -41156.398 -27252.498    119.314    209.838    327.521  15798.510
       805     314.166  -6161.007  -6104.195 -32073.377 -27068.799 -41908.832 -27242.498   -118.703    611.332     52.133  15800.446
       810     316.827  -6161.362  -6104.068 -32402.428 -27296.886 -41985.737 -27924.661    102.268    265.186   -311.871  15802.382
       815     314.796  -6160.842  -6103.916 -32464.533 -27856.870 -41749.800 -27786.930     85.675    -98.137     13.724  15804.318
       820     320.370  -6161.725  -6103.791 -32965.068 -27816.058 -43033.787 -28045.361    -50.366    265.214    507.684  15806.254
       825     323.545  -6162.158  -6103.650 -33277.583 -28090.719 -44018.349 -27723.682    148.284    297.723     10.528  15808.190
       830     315.973  -6160.637  -6103.498 -33004.473 -27520.313 -43824.372 -27668.734   -136.377    548.765     15.814  15810.126
       835     314.969  -6160.318  -6103.360 -33134.197 -27523.787 -43320.429 -28558.374    -93.131    -99.213    257.292  15812.062
       840     317.221  -6160.589  -6103.224 -33418.420 -28065.905 -43654.769 -28534.585    162.067    477.668    349.047  15813.999
       845     316.107  -6160.244  -6103.081 -33495.827 -28481.064 -44107.348 -27899.070    448.181    141.679    210.746  15815.935
       850     320.822  -6160.961  -6102.945 -33916.924 -28843.400 -44076.454 -28830.918    282.577    428.585    163.483  15817.871
       855     319.008  -6160.488  -6102.800 -33926.379 -28545.732 -43930.411 -29302.995   -117.152    463.859   -154.235  15819.807
       860     315.059  -6159.616  -6102.643 -33895.574 -28501.456 -44013.598 -29171.667    215.654    422.759   -720.372  15821.743
       865     323.872  -6161.102  -6102.535 -34671.090 -29171.245 -45080.662 -29761.363    -44.700   -200.225   -493.756  15823.679
       870     311.166  -6158.620  -6102.350 -33941.299 -28274.403 -44270.754 -29278.739    -66.184   -186.412     55.734  15825.615
       875     326.082  -6161.205  -6102.238 -35021.123 -29547.500 -45654.551 -29861.318    540.493    263.806   -214.489  15827.551
       880     319.769  -6159.908  -6102.082 -34843.751 -29151.514 -45859.694 -29520.044    134.274   -200.950   -133.078  15829.487
       885     310.796  -6158.121  -6101.918 -34425.575 -28986.234 -44944.424 -29346.069   -554.355   -159.380    158.096  15831.423
       890     324.514  -6160.494  -6101.810 -35451.776 -30026.247 -45803.682 -30525.401      6.011    302.026   -254.256  15833.359
       895     314.786  -6158.557  -6101.632 -34997.579 -29739.817 -45545.314 -29707.606    582.764     34.536   -736.881  15835.296
       900     319.193  -6159.226  -6101.505 -35486.576 -29827.106 -46270.281 -30362.341    576.736    428.431   -424.620  15837.232
       905     319.764  -6159.176  -6101.352 -35564.118 -29869.462 -46340.763 -30482.129    100.064    875.095     33.897  15839.168
       910     322.562  -6159.541  -6101.211 -35897.628 -30301.546 -46871.299 -30520.040    338.396    277.060    -19.565  15841.104
       915     319.762  -6158.882  -6101.058 -35927.713 -30128.687 -46976.564 -30677.888    -35.045    679.592   -109.894  15843.040
       920     322.177  -6159.177  -6100.916 -36193.516 -30122.451 -47845.722 -30612.375    342.099    755.215    161.219  15844.976
       925     322.615  -6159.107  -6100.767 -36465.934 -30753.635 -48145.960 -30498.207    841.479   -205.869   -326.304  15846.912
       930     315.603  -6157.670  -6100.598 -36127.501 -30316.561 -47700.979 -30364.964     49.037    179.372   -252.106  15848.848
       935     327.844  -6159.760  -6100.474 -36973.419 -30925.967 -48615.920 -31378.371   -231.388     96.070   -104.710  15850.784
       940     322.833  -6158.691  -6100.311 -36828.665 -30877.026 -48661.458 -30947.510    234.847   -529.465    102.470  15852.720
       945     314.646  -6157.055  -6100.156 -36633.450 -30751.287 -48302.781 -30846.282    169.530   -211.655   -149.491  15854.657
       950     318.392  -6157.595  -6100.019 -37005.328 -31273.701 -48357.871 -31384.413   -410.676    205.981   -170.847  15856.593
       955     320.538  -6157.830  -6099.866 -37240.936 -30472.177 -49467.626 -31783.006   -354.033    423.046    132.348  15858.529
       960     326.048  -6158.682  -6099.721 -37710.193 -30856.016 -50188.804 -32085.759   -302.161   -430.763    420.582  15860.465
       965     316.385  -6156.762  -6099.548 -37277.729 -31195.656 -49123.358 -31514.172   -528.197   -239.344    312.539  15862.401
       970     317.680  -6156.849  -6099.401 -37494.007 -31695.628 -49425.889 -31360.502   -322.095    187.064    175.544  15864.337
       975     330.777  -6159.079  -6099.263 -38382.243 -33181.216 -50225.807 -31739.704   -271.417   -410.161   -165.091  15866.273
       980     328.151  -6158.446  -6099.105 -38390.720 -32700.546 -50393.743 -32077.870   -294.761   -387.652    -96.792  15868.209
       985     318.355  -6156.505  -6098.935 -38130.130 -31505.105 -51207.942 -31677.345   -166.313   -166.207    184.427  15870.145
       990     322.999  -6157.202  -6098.793 -38518.570 -32565.397 -51428.113 -31562.199    -49.114    199.596   -121.793  15872.081
       995     325.842  -6157.563  -6098.640 -38822.094 -33244.399 -51022.558 -32199.324    105.042    439.517   -424.861  15874.017
      1000     321.442  -6156.596  -6098.468 -38733.914 -32457.236 -50799.847 -32944.658    501.209    151.554    308.158  15875.954
      1005     326.760  -6157.419  -6098.330 -39124.642 -32804.051 -51469.194 -33100.681   -125.631   -285.054    119.063  15877.890
      1010     319.978  -6156.019  -6098.156 -38937.528 -33073.656 -51412.230 -32326.698   -283.593     50.785    -82.703  15879.826
      1015     317.660  -6155.450  -6098.006 -38971.640 -32862.347 -51372.938 -32679.636    -43.205    388.707    543.699  15881.762
      1020     323.513  -6156.355  -6097.852 -39464.809 -32877.113 -51907.037 -33610.277   -176.536   -305.857    235.913  15883.698
      1025     330.978  -6157.561  -6097.708 -40048.055 -33321.328 -52827.410 -33995.427   -363.988   -639.363    202.422  15885.634
      1030     315.856  -6154.638  -6097.520 -39341.930 -33044.186 -52403.499 -32578.106    -14.696   -568.059    561.966  15887.570
      1035     320.882  -6155.408  -6097.381 -39758.157 -33516.551 -52756.411 -33001.509    264.865   -486.026    714.966  15889.506
      1040     329.660  -6156.837  -6097.223 -40374.580 -33691.439 -53457.949 -33974.353     -7.289   -213.624    439.165  15891.442
      1045     326.812  -6156.168  -6097.069 -40446.825 -33495.560 -53656.803 -34188.112    159.123      3.490     42.208  15893.378
      1050     318.522  -6154.487  -6096.887 -40134.893 -33167.841 -53262.295 -33974.542    608.527   -135.190    261.203  15895.314
      1055     328.003  -6156.064  -6096.750 -40802.594 -34600.147 -53706.775 -34100.859    664.917     46.459    300.070  15897.251
      1060     327.873  -6155.863  -6096.572 -40834.901 -34735.673 -53488.279 -34280.751    -75.278     10.013    287.510  15899.187
      1065     333.428  -6156.721  -6096.426 -41302.386 -34959.546 -53980.487 -34967.125    339.388    305.758    156.574  15901.123
      1070     322.786  -6154.628  -6096.257 -41011.825 -33897.481 -53889.954 -35248.040   1022.280    355.081     68.439  15903.059
      1075     313.839  -6152.840  -6096.087 -40634.070 -33635.501 -53786.270 -34480.439     18.295   -128.331   -250.592  15904.995
      1080     324.287  -6154.587  -6095.945 -41406.191 -34914.507 -54397.578 -34906.489     98.564    115.191    -25.560  15906.931
      1085     324.171  -6154.387  -6095.765 -41477.642 -34623.380 -54572.535 -35237.012    149.045   -200.319   -187.177  15908.867
      1090     335.342  -6156.269  -6095.627 -42226.797 -35095.838 -55374.271 -36210.282   -306.721   -171.170   -356.114  15910.803
      1095     326.805  -6154.539  -6095.441 -41839.618 -34682.836 -54605.498 -36230.521   -241.630    346.382   -184.675  15912.739
      1100     327.077  -6154.433  -6095.286 -42095.587 -35175.834 -55444.558 -35666.367   -455.801    100.025   -151.035  15914.675
      1105     329.697  -6154.750  -6095.129 -42442.991 -35361.986 -55952.334 -36014.652   -285.893     55.310    -74.182  15916.611
      1110     318.900  -6152.605  -6094.937 -41890.329 -34724.062 -55220.220 -35726.704     53.934    213.749    117.473  15918.548
      1115     335.759  -6155.534  -6094.817 -43116.147 -36032.831 -56581.719 -36733.891     30.837    198.452     -3.561  15920.484
      1120     322.985  -6153.023  -6094.616 -42462.651 -35387.212 -55625.736 -36375.006   -222.714    -84.935    132.553  15922.420
      1125     320.730  -6152.452  -6094.453 -42491.022 -35068.888 -56138.901 -36265.276    -27.384    234.770     64.600  15924.356
      1130     332.917  -6154.510  -6094.307 -43342.390 -36096.303 -56966.842 -36964.026   -158.399     50.194    265.555  15926.292
      1135     329.052  -6153.622  -6094.117 -43213.006 -36146.305 -56857.584 -36635.129   -241.902    157.541    228.254  15928.228
      1140     332.939  -6154.185  -6093.978 -43644.121 -35743.248 -57656.599 -37532.515     22.395    549.435   -440.215  15930.164
      1145     322.524  -6152.099  -6093.776 -43184.734 -35496.444 -56921.476 -37136.282   -378.247    113.585    379.964  15932.100
      1150     328.542  -6153.052  -6093.640 -43775.039 -36819.106 -57423.803 -37082.207   -460.108   -333.304    367.783  15934.036
      1155     321.965  -6151.663  -6093.441 -43451.881 -36554.409 -57557.201 -36244.033   -177.488    -78.604     54.254  15935.972
      1160     337.410  -6154.322  -6093.307 -44456.768 -36863.175 -59020.306 -37486.823   -281.302    253.155    173.481  15937.908
      1165     331.116  -6153.000  -6093.122 -44350.708 -36936.897 -59067.790 -37047.436   -194.590   -429.424     48.095  15939.845
      1170     320.442  -6150.882  -6092.935 -43912.281 -36824.504 -58325.012 -36587.327   -133.809   -390.622    400.332  15941.781
      1175     333.539  -6153.105  -6092.790 -44752.810 -37303.874 -58669.993 -38284.564    -18.203    -59.285     32.623  15943.717
      1180     329.874  -6152.259  -6092.607 -44616.712 -36842.881 -59187.414 -37819.842    127.202    410.837   -108.838  15945.653
      1185     325.320  -6151.263  -6092.433 -44595.305 -36886.933 -59969.360 -36929.623   -230.574    111.117    673.126  15947.589
      1190     332.685  -6152.438  -6092.277 -45196.547 -38050.197 -60036.702 -37502.741   -411.403    433.094    319.055  15949.525
      1195     330.073  -6151.784  -6092.095 -45136.619 -37700.265 -59408.644 -38300.949   -485.930    771.025    221.138  15951.461
      1200     325.655  -6150.813  -6091.923 -45117.835 -37245.160 -59807.295 -38301.050    -33.615    898.611    822.641  15953.397
      1205     326.653  -6150.816  -6091.746 -45231.578 -37295.056 -60084.714 -38314.963   -263.903    988.439    603.763  15955.333
      1210     336.994  -6152.526  -6091.586 -45929.477 -38613.692 -60487.046 -38687.694   -198.135    765.618    287.224  15957.269
      1215     335.719  -6152.114  -6091.405 -45991.986 -38913.541 -60743.460 -38318.956    817.780    948.069    653.346  15959.205
      1220     328.152  -6150.564  -6091.222 -45639.866 -38192.090 -60176.506 -38551.002    656.008    531.208    705.243  15961.142
      1225     330.660  -6150.856  -6091.061 -46107.884 -38229.830 -61164.416 -38929.407    336.000    551.582    453.226  15963.078
      1230     329.642  -6150.493  -6090.882 -46164.632 -38424.301 -61299.457 -38770.139    351.071    564.339    379.628  15965.014
      1235     330.093  -6150.397  -6090.704 -46281.172 -38476.653 -61669.960 -38696.902    122.974    534.891    -68.158  15966.950
      1240     337.532  -6151.582  -6090.545 -46899.103 -39035.801 -62382.845 -39278.663     29.589    331.054   -222.252  15968.886
      1245     329.247  -6149.882  -6090.342 -46508.153 -38880.117 -61827.506 -38816.838    396.273     97.752      3.458  15970.822
      1250     332.840  -6150.373  -6090.184 -46898.718 -38857.867 -62452.943 -39385.343    365.834    316.676    232.105  15972.758
      1255     329.842  -6149.645  -6089.999 -46862.007 -38481.182 -62480.569 -39624.271    146.427    383.761   -702.307  15974.694
      1260     329.704  -6149.449  -6089.827 -46951.618 -38640.357 -62586.726 -39627.770    289.801    103.754   -558.435  15976.630
      1265     333.597  -6149.981  -6089.655 -47484.319 -39606.389 -62621.122 -40225.447    351.377     30.471    317.764  15978.566
      1270     332.659  -6149.624  -6089.468 -47532.200 -39952.506 -62468.283 -40175.811    118.971    318.342   -183.075  15980.502
      1275     336.586  -6150.171  -6089.305 -47839.512 -40054.539 -63301.242 -40162.756   -298.673    576.893   -286.540  15982.439
      1280     329.750  -6148.732  -6089.102 -47601.828 -39613.487 -63264.651 -39927.347   -545.713   1014.822    348.341  15984.375
      1285     336.658  -6149.824  -6088.944 -48142.887 -40354.797 -63598.964 -40474.900     30.981    466.372     86.163  15986.311
      1290     336.260  -6149.559  -6088.752 -48323.449 -40817.029 -63584.429 -40568.889   -312.652    237.601    107.781  15988.247
      1295     335.877  -6149.319  -6088.581 -48301.040 -40408.241 -63655.090 -40839.790   -227.800    770.829    593.496  15990.183
      1300     335.202  -6149.006  -6088.390 -48464.575 -40562.152 -63880.322 -40951.250     25.847     -1.221    423.802  15992.119
      1305     334.923  -6148.785  -6088.219 -48587.991 -40833.231 -64201.429 -40729.312    -58.617   -485.672   -104.438  15994.055
      1310     329.508  -6147.607  -6088.021 -48449.064 -40877.592 -64208.311 -40261.289    -61.671     75.272    -33.331  15995.991
      1315     338.983  -6149.171  -6087.871 -49215.051 -41752.700 -64644.648 -41247.804   -572.404    -42.430    262.025  15997.927
      1320     327.312  -6146.844  -6087.654 -48640.303 -40751.351 -64176.513 -40993.045   -920.003    122.720   -516.124  15999.863
      1325     337.504  -6148.532  -6087.499 -49388.974 -41103.326 -65693.652 -41369.946   -589.759    125.534   -814.077  16001.799
      1330     339.408  -6148.686  -6087.309 -49619.539 -41213.606 -66023.019 -41621.990    -75.433    197.449   -445.440  16003.736
      1335     332.641  -6147.272  -6087.119 -49395.565 -41094.629 -65258.106 -41833.960   -394.264    478.297   -573.871  16005.672
      1340     334.269  -6147.386  -6086.939 -49693.581 -41495.948 -65163.245 -42421.550   -513.688    554.911   -564.556  16007.608
      1345     337.507  -6147.801  -6086.768 -49914.668 -41591.187 -65931.130 -42221.686     71.182    256.461    -15.435  16009.544
      1350     332.555  -6146.703  -6086.566 -49843.042 -41312.554 -66502.982 -41713.591     39.046     40.128    -15.583  16011.480
      1355     334.166  -6146.819  -6086.390 -49964.420 -41690.468 -66392.953 -41809.840    -66.751    296.812   -436.204  16013.416
      1360     339.814  -6147.656  -6086.206 -50514.537 -41527.887 -67017.186 -42998.539    412.379    255.236    187.259  16015.352
      1365     339.474  -6147.409  -6086.021 -50575.356 -41851.588 -67174.262 -42700.217    301.231    287.438    469.728  16017.288
      1370     337.599  -6146.876  -6085.826 -50624.783 -42542.224 -67318.462 -42013.663     16.815    373.656    293.298  16019.224
      1375     343.616  -6147.799  -6085.662 -51210.405 -42775.868 -67960.501 -42894.845     71.725    284.599    108.273  16021.160
      1380     329.982  -6145.121  -6085.448 -50524.211 -42260.695 -66874.788 -42437.150   -307.433     -7.166   -260.750  16023.097
      1385     334.108  -6145.692  -6085.274 -50903.550 -42442.601 -67196.923 -43071.126   -424.701     54.035    -10.259  16025.033
      1390     338.478  -6146.300  -6085.092 -51242.010 -42507.803 -67954.559 -43263.668    441.604     22.090   -458.660  16026.969
      1395     337.036  -6145.840  -6084.892 -51262.311 -42169.545 -68352.769 -43264.618   -132.878   -294.153   -259.987  16028.905
      1400     344.155  -6146.961  -6084.725 -51866.050 -43152.758 -68618.009 -43827.382   -532.604   -110.817    131.746  16030.841
      1405     332.104  -6144.567  -6084.511 -51292.507 -42619.414 -67525.515 -43732.592   -223.566   -209.191   -175.763  16032.777
      1410     335.447  -6145.006  -6084.346 -51720.514 -43191.711 -67653.452 -44316.378    -31.542   -436.913    328.233  16034.713
      1415     339.337  -6145.511  -6084.147 -52078.036 -43665.337 -68704.511 -43864.261   -253.992   -122.326    644.318  16036.649
      1420     344.569  -6146.273  -6083.962 -52380.995 -43612.051 -69616.650 -43914.286   -535.758   -253.481    661.291  16038.585
      1425     343.022  -6145.796  -6083.765 -52453.865 -43255.872 -69714.248 -44391.474   -324.283   -115.843    581.542  16040.521
      1430     337.362  -6144.579  -6083.572 -52336.877 -43509.481 -69625.748 -43875.402   -195.021   -329.726    770.061  16042.457
      1435     336.445  -6144.222  -6083.381 -52419.791 -43831.244 -69798.889 -43629.241    370.686    205.920    450.810  16044.394
      1440     339.264  -6144.550  -6083.199 -52670.257 -44185.280 -69605.079 -44220.411    291.746    -12.710     13.852  16046.330
      1445     334.884  -6143.556  -6082.997 -52593.196 -44010.632 -69773.254 -43995.701    150.959   -126.185    302.614  16048.266
      1450     340.003  -6144.301  -6082.817 -52998.437 -44299.451 -70546.999 -44148.861     38.766   -254.426    444.345  16050.202
      1455     344.113  -6144.858  -6082.630 -53356.054 -44305.361 -70738.482 -45024.320     15.504   -656.572    -66.253  16052.138
      1460     338.860  -6143.701  -6082.423 -53236.346 -44066.596 -70850.829 -44791.613   -362.635   -449.482    502.839  16054.074
      1465     341.664  -6144.028  -6082.244 -53538.936 -44787.800 -71339.811 -44489.197   -201.698   -307.949     42.460  16056.010
      1470     342.378  -6143.952  -6082.038 -53704.805 -44695.117 -71627.725 -44791.574     96.917   -762.860   -485.585  16057.946
      1475     339.968  -6143.336  -6081.858 -53743.443 -44449.574 -71349.642 -45431.112   -218.097   -266.670    -73.355  16059.882
      1480     330.250  -6141.358  -6081.638 -53297.405 -44039.225 -70364.238 -45488.752    232.228   -831.212    156.988  16061.818
      1485     350.443  -6144.852  -6081.479 -54585.180 -45680.160 -72227.268 -45848.113    610.061   -331.335    340.835  16063.754
      1490     352.018  -6144.933  -6081.276 -54726.520 -45710.691 -72705.829 -45763.039    235.381   -509.651    291.722  16065.691
      1495     338.619  -6142.292  -6081.058 -54149.308 -45217.942 -71656.564 -45573.419    315.805  -1313.906    130.218  16067.627
      1500     337.447  -6141.900  -6080.878 -54291.025 -45289.691 -72153.577 -45429.806    380.104   -373.994     79.836  16069.563
      1505     337.741  -6141.742  -6080.666 -54377.164 -45318.951 -72286.636 -45525.906    347.674   -275.422    251.587  16071.499
      1510     352.494  -6144.255  -6080.512 -55460.420 -46094.821 -73195.839 -47090.601    635.833   -278.383    122.264  16073.435
      1515     330.528  -6140.032  -6080.261 -54386.741 -44730.096 -72358.005 -46072.121    583.548    321.625    143.859  16075.371
      1520     344.027  -6142.312  -6080.100 -55234.416 -45912.442 -73480.400 -46310.407    119.940    757.176    905.494  16077.307
      1525     356.738  -6144.414  -6079.903 -55967.367 -46949.655 -74262.347 -46690.099    -35.567    876.178    451.259  16079.243
      1530     342.919  -6141.697  -6079.686 -55304.268 -46229.605 -73563.233 -46119.967     29.721    295.182    236.476  16081.179
      1535     335.529  -6140.165  -6079.489 -55172.193 -45714.526 -73440.058 -46361.996   -311.550    420.763    239.650  16083.115
      1540     339.987  -6140.773  -6079.292 -55482.818 -45698.972 -73899.140 -46850.341   -262.781    698.179    186.746  16085.051
      1545     352.046  -6142.780  -6079.118 -56365.732 -47205.931 -74783.461 -47107.803   -174.917    184.967    238.697  16086.988
      1550     335.980  -6139.632  -6078.876 -55430.094 -46492.409 -73380.264 -46417.611   -134.514    690.365   -211.009  16088.924
      1555     346.790  -6141.422  -6078.710 -56247.797 -46703.357 -74350.728 -47689.306    198.101    859.290     38.746  16090.860
      1560     348.999  -6141.613  -6078.502 -56637.515 -46867.465 -75355.747 -47689.332    420.814    610.662    310.996  16092.796
      1565     342.878  -6140.293  -6078.289 -56252.328 -46843.303 -75065.864 -46847.819    378.261   1017.448   -529.927  16094.732
      1570     350.928  -6141.566  -6078.106 -56911.193 -47694.435 -75361.491 -47677.654     80.192    315.602   -468.500  16096.668
      1575     344.283  -6140.143  -6077.885 -56557.293 -46959.649 -75239.594 -47472.637    129.529     12.779   -461.306  16098.604
      1580     342.721  -6139.670  -6077.694 -56792.360 -46829.489 -75888.330 -47659.261     -9.893    808.088  -1023.822  16100.540
      1585     337.810  -6138.568  -6077.481 -56704.703 -46675.104 -75888.916 -47550.089   -148.666     56.927   -620.087  16102.476
      1590     346.148  -6139.884  -6077.288 -57206.908 -47714.668 -76073.463 -47832.595   -304.861   -243.777   -328.863  16104.412
      1595     352.027  -6140.754  -6077.095 -57668.782 -48408.103 -76519.643 -48078.600     27.936   -203.744   -326.726  16106.348
      1600     342.320  -6138.773  -6076.870 -57192.159 -47406.593 -76143.239 -48026.645    148.180   -151.331   -142.282  16108.285
      1605     343.807  -6138.849  -6076.677 -57612.831 -47211.471 -77096.911 -48530.112   -126.276    279.644    587.924  16110.221
      1610     346.151  -6139.070  -6076.473 -57652.851 -47674.232 -76894.654 -48389.667   -666.856    -88.907    182.477  16112.157
      1615     350.071  -6139.572  -6076.267 -58050.866 -49121.821 -76706.681 -48324.098   -135.176   -203.326   -298.038  16114.093
      1620     351.263  -6139.585  -6076.065 -58277.081 -48999.616 -76971.945 -48859.682    303.211    168.493    274.070  16116.029
      1625     345.755  -6138.380  -6075.855 -58066.367 -47672.383 -77435.723 -49090.997     88.000   -328.063      9.932  16117.965
      1630     342.235  -6137.533  -6075.645 -58130.234 -47898.749 -77384.325 -49107.629     51.910   -344.063   -909.386  16119.901
      1635     348.784  -6138.519  -6075.446 -58481.346 -48726.819 -77711.898 -49005.320    132.842   -285.010   -324.984  16121.837
      1640     354.374  -6139.336  -6075.253 -58972.762 -49095.797 -78549.010 -49273.478    -34.126   -486.094    265.985  16123.773
      1645     344.522  -6137.327  -6075.026 -58633.905 -48092.776 -78625.452 -49183.485   -254.613    -28.350   -275.768  16125.709
      1650     344.638  -6137.142  -6074.820 -58736.222 -48812.813 -78255.953 -49139.900   -645.952   -481.001    202.245  16127.645
      1655     354.233  -6138.698  -6074.640 -59464.831 -50318.620 -78846.134 -49229.740   -299.864     27.146    286.483  16129.582
      1660     343.916  -6136.587  -6074.395 -58941.245 -48969.356 -78236.701 -49617.679    420.608   -202.490     11.215  16131.518
      1665     348.697  -6137.273  -6074.216 -59437.856 -49384.161 -78631.213 -50298.193    598.223   -113.845   -156.409  16133.454
      1670     348.694  -6137.047  -6073.991 -59492.468 -49661.741 -78900.873 -49914.789    446.354     23.726   -113.740  16135.390
      1675     352.004  -6137.443  -6073.789 -59695.158 -49826.720 -79468.919 -49789.834    239.396   -683.420    -50.632  16137.326
      1680     352.136  -6137.254  -6073.576 -59949.688 -49921.172 -80033.592 -49894.300   -143.170     84.753    422.685  16139.262
      1685     350.371  -6136.717  -6073.358 -59971.002 -50149.549 -79866.460 -49896.997    179.333    -12.067    615.162  16141.198
      1690     356.065  -6137.557  -6073.168 -60491.687 -50429.847 -80254.545 -50790.669   -177.571   -529.097    313.603  16143.134
      1695     346.308  -6135.555  -6072.931 -59936.385 -49580.386 -79867.675 -50361.094   -113.619   -265.039    414.863  16145.070
      1700     349.292  -6135.896  -6072.732 -60244.408 -50376.848 -80576.911 -49779.466   -336.600   -457.044    420.242  16147.006
      1705     351.432  -6136.085  -6072.534 -60674.132 -50802.619 -80740.384 -50479.394   -297.954   -497.701    221.773  16148.942
      1710     339.065  -6133.599  -6072.284 -59970.341 -49835.192 -79689.435 -50386.397   -178.198   -727.517   -351.624  16150.879
      1715     364.334  -6138.021  -6072.137 -61602.058 -51607.209 -81195.653 -52003.311   -137.851   -716.223   -102.676  16152.815
      1720     346.836  -6134.591  -6071.871 -60658.737 -50670.480 -80225.290 -51080.442    656.651   -605.548   -107.212  16154.751
      1725     345.400  -6134.144  -6071.683 -60684.290 -50468.666 -80342.303 -51241.902    415.103   -430.533   -174.984  16156.687
      1730     347.369  -6134.281  -6071.465 -61018.403 -51099.816 -81220.785 -50734.610   -116.748   -348.532   -318.040  16158.623
      1735     356.474  -6135.725  -6071.262 -61593.625 -51548.463 -82349.668 -50882.745    228.707   -112.536   -451.493  16160.559
      1740     357.796  -6135.749  -6071.047 -61841.095 -51177.792 -82438.278 -51907.215     17.925    222.548   -378.961  16162.495
      1745     350.446  -6134.192  -6070.819 -61478.948 -50863.521 -82028.061 -51545.264   -593.040     24.225    209.203  16164.431
      1750     357.437  -6135.260  -6070.623 -62097.927 -51595.545 -83053.362 -51644.873   -430.526   -138.700    224.755  16166.367
      1755     351.662  -6133.984  -6070.391 -61922.648 -51342.321 -83063.971 -51361.653   -302.672    377.988     81.163  16168.303
      1760     350.406  -6133.545  -6070.179 -61859.243 -51305.726 -82896.652 -51375.352   -274.884    869.381   -261.095  16170.239
      1765     359.392  -6134.962  -6069.972 -62546.332 -52181.324 -83608.262 -51849.411   -588.933    108.511   -388.680  16172.176
      1770     357.590  -6134.411  -6069.746 -62482.324 -52036.107 -83503.771 -51907.093    123.141   -217.227   -192.445  16174.112
      1775     351.912  -6133.169  -6069.532 -62402.649 -51874.108 -83029.655 -52304.185   -234.536    -51.669   -335.783  16176.048
      1780     345.938  -6131.864  -6069.306 -62269.217 -51269.345 -83491.899 -52046.407   -995.560    178.256   -214.700  16177.984
      1785     352.671  -6132.876  -6069.100 -62786.972 -51970.937 -84207.471 -52182.508   -794.110   -974.662   -798.687  16179.920
      1790     359.811  -6133.951  -6068.885 -63223.328 -52596.827 -84451.212 -52621.944   -751.963   -452.286   -702.346  16181.856
      1795     356.052  -6133.040  -6068.654 -63039.227 -52016.650 -84479.381 -52621.651   -533.960   -446.655    -12.500  16183.792
      1800     359.084  -6133.382  -6068.447 -63421.155 -52298.495 -85283.854 -52681.115    145.529   -931.389    366.010  16185.728
      1805     352.612  -6131.979  -6068.214 -63196.192 -52558.874 -84255.055 -52774.647     84.618  -1033.657    308.415  16187.664
      1810     355.683  -6132.327  -6068.007 -63514.060 -52722.616 -84356.107 -53463.457   -419.467   -584.222    382.378  16189.600
      1815     356.714  -6132.292  -6067.785 -63707.320 -52383.862 -85128.713 -53609.385   -499.288   -216.663    589.653  16191.536
      1820     350.953  -6131.023  -6067.558 -63536.890 -52649.105 -85162.966 -52798.600   -407.826    528.319    641.880  16193.473
      1825     352.362  -6131.059  -6067.340 -63685.236 -53074.264 -84935.953 -53045.490   -419.672     67.286    616.397  16195.409
      1830     358.498  -6131.961  -6067.132 -64145.597 -53610.446 -85367.885 -53458.459   -590.781    658.110    600.280  16197.345
      1835     358.854  -6131.801  -6066.908 -64319.391 -53830.183 -85630.397 -53497.593   -661.310    645.767    264.037  16199.281
      1840     352.568  -6130.428  -6066.672 -64001.542 -52742.365 -85505.731 -53756.529   -288.767    -75.858    -16.912  16201.217
      1845     361.369  -6131.817  -6066.469 -64725.203 -53278.261 -86095.230 -54802.120   -184.797   -531.172   -605.306  16203.153
      1850     362.947  -6131.873  -6066.239 -64905.810 -54293.795 -86406.451 -54017.185    -74.305    245.907   -489.737  16205.089
      1855     357.764  -6130.713  -6066.017 -64769.004 -54327.323 -86545.744 -53433.944     65.694   -363.705     80.449  16207.025
      1860     351.200  -6129.293  -6065.784 -64514.492 -53464.341 -86712.234 -53366.901    216.856   -890.691   -459.366  16208.961
      1865     359.410  -6130.574  -6065.580 -65071.307 -53871.918 -86897.044 -54444.961   -102.319   -308.995   -741.191  16210.897
      1870     362.527  -6130.917  -6065.359 -65369.445 -54499.871 -86952.193 -54656.272    151.481   -102.957   -551.500  16212.834
      1875     350.974  -6128.580  -6065.111 -64715.851 -53757.164 -86414.994 -53975.394   -270.341    201.478   -560.752  16214.770
      1880     358.046  -6129.664  -6064.916 -65421.093 -54035.464 -87214.365 -55013.450   -476.587   -156.955   -220.110  16216.706
      1885     354.202  -6128.728  -6064.676 -65344.379 -54870.732 -86493.981 -54668.424    444.111   -349.997    280.156  16218.642
      1890     356.279  -6128.882  -6064.454 -65399.240 -55397.472 -87129.358 -53670.890     61.109    -21.495   -405.829  16220.578
      1895     370.159  -6131.187  -6064.250 -66357.020 -55409.735 -88472.912 -55188.413   -906.453      2.673      4.833  16222.514
      1900     363.812  -6129.798  -6064.008 -66051.304 -54972.362 -88297.134 -54884.415   -287.601   -356.171    352.521  16224.450
      1905     356.069  -6128.169  -6063.779 -65880.542 -54746.287 -88382.494 -54512.847    -22.630   -293.827   -323.964  16226.386
      1910     359.637  -6128.590  -6063.555 -66198.305 -55048.966 -88547.371 -54998.579   -386.277   -337.557     97.143  16228.322
      1915     359.141  -6128.277  -6063.332 -66116.721 -54660.058 -88554.658 -55135.446   -727.452   -262.842    550.814  16230.258
      1920     353.831  -6127.082  -6063.097 -66094.402 -54481.516 -89239.136 -54562.553   -365.578   -644.835    -44.450  16232.194
      1925     354.318  -6126.946  -6062.873 -66195.478 -55431.185 -88747.137 -54408.113   -385.516     47.473   -218.096  16234.131
      1930     369.871  -6129.554  -6062.668 -67239.261 -56560.942 -89351.600 -55805.242   -154.553   -449.432    279.165  16236.067
      1935     364.019  -6128.240  -6062.412 -66960.643 -55101.656 -89715.533 -56064.739    262.731   -583.245    569.943  16238.003
      1940     362.769  -6127.796  -6062.195 -66927.337 -55466.677 -89557.482 -55757.851    154.341    213.300   1126.137  16239.939
      1945     361.599  -6127.357  -6061.967 -67156.527 -56261.482 -89752.191 -55455.908   -381.717   -364.232    619.121  16241.875
      1950     354.569  -6125.848  -6061.729 -66860.876 -55775.994 -89668.002 -55138.632   -362.688   -266.602    296.163  16243.811
      1955     360.238  -6126.655  -6061.511 -67296.214 -56164.535 -90431.702 -55292.404   -410.420    -23.064    162.088  16245.747
      1960     360.364  -6126.444  -6061.278 -67411.472 -56263.084 -90588.417 -55382.914   -852.855    102.438    -75.719  16247.683
      1965     362.052  -6126.515  -6061.043 -67591.035 -56176.225 -90577.540 -56019.341   -133.341    301.008    179.021  16249.619
      1970     369.358  -6127.621  -6060.828 -68073.711 -55862.141 -91493.994 -56864.997    235.738   -527.886     98.726  16251.555
      1975     365.426  -6126.667  -6060.585 -67950.945 -56499.594 -91249.373 -56103.869   -700.807   -456.660   -267.809  16253.491
      1980     359.194  -6125.301  -6060.346 -67825.376 -57185.639 -90595.723 -55694.767   -866.178   -610.282   -632.501  16255.428
      1985     363.365  -6125.840  -6060.131 -68209.659 -57455.763 -90898.484 -56274.729   -255.559   -367.794   -659.090  16257.364
      1990     362.561  -6125.451  -6059.888 -68270.304 -56863.588 -91122.634 -56824.691   -129.715    503.238   -531.181  16259.300
      1995     366.611  -6125.956  -6059.660 -68616.833 -56862.027 -92028.551 -56959.921   -241.369   -361.018   -280.793  16261.236
      2000     368.524  -6126.076  -6059.434 -68823.566 -57648.433 -91939.074 -56883.190   -431.797   -418.495   -716.465  16263.172
      2005     359.321  -6124.160  -6059.182 -68413.625 -57413.499 -91232.573 -56594.803   -372.824   -507.561   -552.763  16265.108
      2010     364.117  -6124.810  -6058.965 -68829.970 -57344.534 -92253.779 -56891.596    288.508   -766.603    -43.786  16267.044
      2015     364.794  -6124.697  -6058.729 -69000.450 -57649.303 -93054.711 -56297.335    182.561   -423.311   -263.956  16268.980
      2020     360.211  -6123.625  -6058.486 -68808.223 -57340.062 -92445.558 -56639.049    -72.860   -520.762   -580.174  16270.916
      2025     364.926  -6124.259  -6058.268 -69261.850 -57957.753 -92565.548 -57262.250   -164.278   -353.180   -609.016  16272.852
      2030     366.516  -6124.303  -6058.024 -69456.965 -58182.887 -92416.960 -57771.048    237.082    378.977    -73.332  16274.788
      2035     371.083  -6124.910  -6057.805 -69803.682 -57923.485 -93399.766 -58087.795   -140.440   -354.254     84.301  16276.725
      2040     361.100  -6122.840  -6057.541 -69364.804 -58150.842 -93183.729 -56759.840    -72.028   -813.928     61.861  16278.661
      2045     369.153  -6124.089  -6057.333 -69893.496 -58555.147 -93445.967 -57679.372    -83.842   -506.903    718.777  16280.597
      2050     367.150  -6123.474  -6057.080 -69983.646 -58184.588 -93465.825 -58300.525   -360.405   -388.801    669.285  16282.533
      2055     364.562  -6122.774  -6056.848 -69907.211 -58155.284 -93534.740 -58031.609    254.415   -802.991   -128.986  16284.469
      2060     365.589  -6122.724  -6056.613 -70158.783 -58323.032 -94412.685 -57740.631    284.344   -631.929   -233.087  16286.405
      2065     365.428  -6122.454  -6056.372 -70179.577 -58462.266 -94401.179 -57675.288   -194.005    -10.803   -284.939  16288.341
      2070     369.982  -6123.049  -6056.143 -70631.232 -58722.134 -94563.236 -58608.326   -107.472    -80.849   -419.382  16290.277
      2075     364.128  -6121.735  -6055.887 -70531.895 -58443.859 -94423.884 -58727.942   -188.653    259.102   -102.859  16292.213
      2080     368.591  -6122.319  -6055.665 -70790.318 -58668.621 -94819.518 -58882.815   -287.219    172.926   -253.157  16294.149
      2085     372.267  -6122.741  -6055.422 -71032.124 -58865.881 -95075.906 -59154.583   -411.734    336.006    -76.203  16296.085
      2090     370.716  -6122.223  -6055.184 -71164.472 -58429.677 -95699.146 -59364.592   -139.955    529.714    443.772  16298.022
      2095     366.017  -6121.125  -6054.936 -71084.453 -58445.927 -95776.581 -59030.852    319.926    -41.572     56.460  16299.958
      2100     369.177  -6121.467  -6054.706 -71189.936 -59058.725 -95462.609 -59048.474    461.005     68.291   -137.634  16301.894
      2105     368.259  -6121.067  -6054.473 -71393.249 -58969.680 -95456.891 -59753.175    650.534   -195.832    108.090  16303.830
      2110     358.508  -6119.047  -6054.216 -71008.773 -58123.520 -95244.553 -59658.245    280.611   -114.405   -275.008  16305.766
      2115     370.285  -6120.956  -6053.995 -71675.741 -58928.392 -96112.552 -59986.281    254.263    219.404   -679.520  16307.702
      2120     376.994  -6121.934  -6053.760 -72083.257 -60103.221 -96640.197 -59506.352    552.093   -219.592   -378.702  16309.638
      2125     369.764  -6120.362  -6053.495 -71750.112 -59879.867 -96570.534 -58799.934    397.705   -572.402   -670.061  16311.574
      2130     377.737  -6121.587  -6053.279 -72455.920 -59499.240 -97445.508 -60423.013    574.366     47.131   -259.575  16313.510
      2135     365.701  -6119.148  -6053.017 -71875.124 -58421.095 -97140.978 -60063.300    221.454     14.335   -138.975  16315.446
      2140     362.478  -6118.322  -6052.774 -71759.579 -58917.588 -96909.730 -59451.421     57.718   -243.326   -960.141  16317.382
      2145     375.490  -6120.449  -6052.548 -72546.862 -60497.310 -97379.650 -59763.625    775.943   -459.786   -874.222  16319.319
      2150     370.754  -6119.335  -6052.289 -72279.171 -59842.473 -97447.947 -59547.093    827.807   -377.246   -543.460  16321.255
      2155     370.997  -6119.138  -6052.049 -72608.140 -59467.411 -98055.843 -60301.167    379.436    154.323   -109.259  16323.191
      2160     375.886  -6119.788  -6051.815 -72951.009 -60460.459 -97974.871 -60417.698    713.143    304.162    196.309  16325.127
      2165     374.001  -6119.193  -6051.560 -73031.621 -60944.900 -98000.315 -60149.648    846.468   -327.784    843.139  16327.063
      2170     367.743  -6117.818  -6051.317 -72711.189 -60771.000 -97884.061 -59478.506    684.936    205.268    890.425  16328.999
      2175     366.439  -6117.329  -6051.064 -72685.246 -60270.396 -97952.621 -59832.721    185.805    135.218    570.421  16330.935
      2180     378.821  -6119.345  -6050.841 -73626.126 -60465.817 -99546.127 -60866.434    261.104   -357.064    588.095  16332.871
      2185     374.701  -6118.334  -6050.575 -73387.098 -60162.391 -99097.877 -60901.026    775.233   -460.799    739.248  16334.807
      2190     374.784  -6118.116  -6050.342 -73639.920 -60896.506 -98774.163 -61249.092    832.373   -124.208    506.689  16336.743
      2195     365.328  -6116.154  -6050.090 -73246.341 -60207.103 -98458.785 -61073.134    500.019    171.936    125.621  16338.679
      2200     367.301  -6116.260  -6049.840 -73320.750 -59986.201 -98703.434 -61272.614     29.014   -236.672     70.113  16340.616
      2205     385.976  -6119.416  -6049.619 -74572.892 -61893.335 -100049.572 -61775.770    212.832   -628.031    614.976  16342.552
      2210     373.801  -6116.948  -6049.351 -73910.588 -61755.046 -99778.755 -60197.962    127.311     27.715    534.732  16344.488
      2215     363.718  -6114.864  -6049.091 -73472.608 -60810.681 -99133.022 -60474.121    117.845   -603.763    327.505  16346.424
      2220     378.948  -6117.398  -6048.871 -74411.513 -61455.758 -100043.880 -61734.901    159.660   -125.289    451.447  16348.360
      2225     381.022  -6117.514  -6048.612 -74601.502 -61814.761 -100630.860 -61358.885    -14.368    680.355   -334.464  16350.296
      2230     372.824  -6115.773  -6048.353 -74411.805 -61574.429 -100861.510 -60799.476     85.817    315.126   -602.284  16352.232
      2235     371.955  -6115.373  -6048.110 -74534.087 -61612.705 -100798.864 -61190.693    266.561    653.551   -476.836  16354.168
      2240     375.842  -6115.825  -6047.859 -74758.660 -61392.016 -101080.734 -61803.232    585.990    159.388   -553.865  16356.104
      2245     381.548  -6116.619  -6047.622 -75191.823 -62061.379 -101446.526 -62067.563    446.494   -136.232   -712.244  16358.040
      2250     371.875  -6114.605  -6047.357 -74740.615 -61597.013 -101042.223 -61582.609    195.628   -115.170   -321.306  16359.976
      2255     366.908  -6113.445  -6047.095 -74570.486 -61325.962 -101183.301 -61202.195    -31.746    150.056   -254.786  16361.913
      2260     383.570  -6116.236  -6046.873 -75652.963 -62506.725 -102440.647 -62011.518   -445.746    104.777   -451.498  16363.849
      2265     379.947  -6115.323  -6046.616 -75551.263 -62339.571 -101978.610 -62335.608    -14.882   -128.649   -845.545  16365.785
      2270     366.036  -6112.524  -6046.332 -74927.191 -61535.792 -100883.229 -62362.551   -149.243    111.228   -386.712  16367.721
      2275     380.626  -6114.958  -6046.128 -75847.163 -62623.371 -101883.033 -63035.084   -659.086    179.676    -38.837  16369.657
      2280     379.686  -6114.515  -6045.854 -75925.179 -63094.441 -102551.126 -62129.969   -350.174   -150.181      2.208  16371.593
      2285     375.399  -6113.486  -6045.601 -75731.043 -62812.605 -102764.910 -61615.613    174.580   -426.439   -397.604  16373.529
      2290     380.915  -6114.237  -6045.355 -76176.312 -62906.348 -102889.935 -62732.653    226.640   -321.565   -499.163  16375.465
      2295     379.612  -6113.748  -6045.101 -76251.977 -63618.401 -102234.911 -62902.619    376.046    -16.604    132.110  16377.401
      2300     372.566  -6112.204  -6044.831 -75938.016 -63275.133 -102138.978 -62399.938    164.487     86.657    205.385  16379.337
      2305     382.152  -6113.711  -6044.605 -76582.582 -63506.504 -103610.252 -62630.989   -185.747    -13.850    133.967  16381.274
      2310     375.285  -6112.182  -6044.317 -76333.707 -63388.193 -103684.873 -61928.056    399.347   -190.997   -292.974  16383.210
      2315     386.193  -6113.931  -6044.094 -77047.140 -64151.752 -103560.921 -63428.748    302.473   -300.060   -356.026  16385.146
      2320     380.332  -6112.591  -6043.814 -76735.955 -63797.908 -103455.187 -62954.771   -351.516   -444.933   -516.195  16387.082
      2325     378.706  -6112.054  -6043.570 -76868.256 -63849.350 -103863.944 -62891.474   -315.643   -746.166   -426.941  16389.018
      2330     374.655  -6111.066  -6043.315 -76771.825 -63002.756 -104170.894 -63141.825   -175.522   -502.330   -291.829  16390.954
      2335     375.059  -6110.877  -6043.053 -76868.013 -63069.097 -104003.250 -63531.691    -54.305   -996.684   -174.616  16392.890
      2340     385.897  -6112.604  -6042.820 -77718.735 -64829.681 -104483.661 -63842.863    156.545   -758.073    216.402  16394.826
      2345     380.880  -6111.416  -6042.539 -77432.430 -64735.332 -104535.557 -63026.400   -276.325   -486.528    214.397  16396.762
      2350     385.005  -6111.910  -6042.288 -77619.020 -64162.556 -105251.018 -63443.485   -197.158   -836.708   -219.966  16398.698
      2355     389.232  -6112.428  -6042.041 -78079.106 -64194.693 -105652.600 -64390.027    209.095   -599.553   -125.796  16400.634
      2360     379.876  -6110.455  -6041.760 -77709.884 -64374.880 -104791.644 -63963.127    252.529    139.625   -280.842  16402.571
      2365     383.428  -6110.856  -6041.519 -78005.879 -65257.614 -104819.710 -63940.314    588.306     -0.121   -370.153  16404.507
      2370     378.335  -6109.671  -6041.255 -77805.910 -64543.420 -105037.608 -63836.703    800.845    259.622   -265.163  16406.443
      2375     375.180  -6108.831  -6040.985 -77720.987 -64032.521 -105162.830 -63967.610    492.699    184.485   -189.209  16408.379
      2380     388.421  -6111.000  -6040.760 -78555.375 -64477.557 -106035.838 -65152.730    384.978    271.217   -314.374  16410.315
      2385     377.194  -6108.676  -6040.466 -77926.117 -63915.153 -105158.705 -64704.494    543.016    480.877   -448.268  16412.251
      2390     380.809  -6109.085  -6040.221 -78314.831 -64550.642 -105520.186 -64873.666    165.989    356.047    -17.585  16414.187
      2395     389.922  -6110.484  -6039.972 -79054.451 -65547.822 -106419.395 -65196.136    130.564   -138.989    637.998  16416.123
      2400     379.914  -6108.396  -6039.694 -78572.679 -65029.501 -106030.446 -64658.088    921.300   -203.485    326.398  16418.059
      2405     379.679  -6108.101  -6039.441 -78597.298 -64448.498 -106397.026 -64946.369    402.755    133.515   -433.036  16419.995
      2410     384.507  -6108.712  -6039.180 -78888.482 -64948.562 -106478.676 -65238.209   -348.955    312.703   -343.509  16421.931
      2415     386.127  -6108.751  -6038.926 -79068.957 -65805.058 -106511.194 -64890.620    124.173    510.754    230.537  16423.868
      2420     385.504  -6108.377  -6038.664 -79346.345 -65381.009 -107356.829 -65301.198     63.731    384.211    227.309  16425.804
      2425     380.873  -6107.273  -6038.397 -79236.496 -65092.058 -107612.506 -65004.924   -677.217    593.325   -338.743  16427.740
      2430     384.244  -6107.621  -6038.136 -79260.595 -65586.160 -107323.128 -64872.497   -600.009    516.672    120.483  16429.676
      2435     390.760  -6108.550  -6037.887 -79815.863 -65570.833 -107996.715 -65880.039   -514.033    768.641   -108.868  16431.612
      2440     384.603  -6107.153  -6037.603 -79615.181 -64510.360 -108075.146 -66260.037   -398.279    615.934   -633.453  16433.548
      2445     386.452  -6107.236  -6037.352 -79770.737 -65451.870 -108013.226 -65847.115    170.239    173.880  -1008.775  16435.484
      2450     385.267  -6106.755  -6037.085 -79875.278 -67109.163 -107894.143 -64622.529    -69.208    448.338   -630.617  16437.420
      2455     380.330  -6105.591  -6036.814 -79592.449 -66083.160 -108217.600 -64476.587   -193.269   1017.488   -611.770  16439.356
      2460     386.373  -6106.431  -6036.562 -80178.658 -65297.477 -108770.789 -66467.708    -84.740   1086.712   -496.373  16441.292
      2465     391.725  -6107.151  -6036.314 -80606.982 -65436.652 -109222.661 -67161.633    213.389   1091.109    -28.688  16443.228
      2470     375.179  -6103.853  -6036.007 -79589.417 -64995.352 -108164.205 -65608.695    561.133   1261.856   -125.317  16445.165
      2475     396.801  -6107.550  -6035.794 -81110.798 -67228.737 -109232.720 -66870.936    486.458   -119.175   -218.605  16447.101
      2480     394.373  -6106.820  -6035.504 -80889.291 -67484.448 -108944.525 -66238.900    542.031     21.961   -113.865  16449.037
      2485     382.783  -6104.441  -6035.221 -80326.719 -66411.273 -108880.382 -65688.502    784.585    137.799    100.155  16450.973
      2490     388.471  -6105.229  -6034.980 -80861.852 -66302.715 -109396.642 -66886.198    244.081   -496.432    542.329  16452.909
      2495     382.499  -6103.872  -6034.703 -80626.641 -66188.301 -108909.275 -66782.346     -9.749   -348.316    387.116  16454.845
      2500     387.088  -6104.434  -6034.435 -80965.771 -66929.759 -109511.731 -66455.821    -45.901    148.573    454.524  16456.781
      2505     397.047  -6105.983  -6034.183 -81355.296 -67699.127 -109530.097 -66836.664   -326.009   -269.189    458.943  16458.717
      2510     388.527  -6104.160  -6033.901 -81107.529 -67153.539 -109325.694 -66843.353     86.648    -98.920    878.932  16460.653
      2515     382.509  -6102.808  -6033.637 -81058.138 -66622.059 -109908.239 -66644.115    368.018   -220.571    912.831  16462.589
      2520     385.715  -6103.126  -6033.375 -81250.267 -67173.663 -109675.230 -66901.909    929.448    403.760    496.620  16464.525
      2525     395.572  -6104.646  -6033.113 -81965.145 -68370.695 -110027.854 -67496.886    896.031    500.492    420.015  16466.462
      2530     395.567  -6104.379  -6032.846 -81916.052 -67723.307 -110652.419 -67372.431    996.666    709.801    -87.593  16468.398
      2535     384.177  -6102.023  -6032.550 -81284.761 -66683.038 -110879.291 -66291.954   1391.789    882.692   -540.257  16470.334
      2540     394.674  -6103.685  -6032.314 -82108.753 -68067.444 -111740.664 -66518.151   1225.776   -138.556   -368.521  16472.270
      2545     384.217  -6101.490  -6032.011 -81669.383 -67490.599 -110904.669 -66612.879    802.701    189.884     36.238  16474.206
      2550     392.574  -6102.761  -6031.769 -82287.385 -68226.132 -111152.030 -67483.993   1005.200    313.467    -81.105  16476.142
      2555     393.600  -6102.663  -6031.487 -82419.330 -67965.940 -111546.405 -67745.644    812.338   -362.956   -554.552  16478.078
      2560     391.652  -6102.051  -6031.227 -82448.559 -67071.346 -112350.579 -67923.754    525.697   -501.985   -973.294  16480.014
      2565     386.889  -6100.900  -6030.937 -82323.309 -67025.027 -112382.681 -67562.218    503.263    160.792   -171.499  16481.950
      2570     393.306  -6101.806  -6030.683 -82678.451 -67996.074 -111811.601 -68227.679    400.463    387.386   -212.562  16483.886
      2575     398.717  -6102.512  -6030.410 -83166.512 -68886.010 -112184.207 -68429.320     98.029   -332.062   -629.380  16485.822
      2580     390.297  -6100.719  -6030.139 -82702.939 -67711.287 -111908.121 -68489.409   -442.750    -89.274    -56.378  16487.759
      2585     381.023  -6098.754  -6029.852 -82207.964 -67589.973 -111518.578 -67515.342   -249.434    481.855     29.680  16489.695
      2590     399.527  -6101.855  -6029.607 -83533.751 -69092.133 -113856.805 -67652.316    505.566    850.010   -322.966  16491.631
      2595     401.141  -6101.863  -6029.322 -83721.253 -68503.070 -114055.810 -68604.877     74.504    480.387    104.077  16493.567
      2600     391.721  -6099.887  -6029.050 -83290.176 -68548.362 -112823.309 -68498.856   -232.289    225.505    245.953  16495.503
      2605     384.467  -6098.281  -6028.756 -83066.844 -68387.711 -112878.079 -67934.741    565.486   -334.255    395.198  16497.439
      2610     399.537  -6100.767  -6028.517 -83906.829 -68617.005 -113986.471 -69117.011    481.639    570.046    215.124  16499.375
      2615     394.647  -6099.584  -6028.218 -83685.672 -68124.231 -113608.985 -69323.800    -77.608    -77.341    242.792  16501.311
      2620     396.432  -6099.640  -6027.951 -83850.846 -68854.096 -113747.978 -68950.465    251.424   -335.909     -1.167  16503.247
      2625     400.189  -6100.053  -6027.684 -84169.551 -69290.659 -114402.775 -68815.219    123.902   -507.542   -543.201  16505.183
      2630     390.044  -6097.933  -6027.399 -83696.500 -68572.901 -113478.638 -69037.960   -509.862    391.821   -920.375  16507.119
      2635     383.063  -6096.378  -6027.107 -83192.954 -67807.679 -112719.975 -69051.207    208.374    711.970   -938.172  16509.056
      2640     402.641  -6099.677  -6026.866 -84407.088 -69344.062 -113933.098 -69944.105    794.521     66.826   -436.549  16510.992
      2645     405.002  -6099.821  -6026.583 -84793.375 -70037.949 -114684.033 -69658.141    369.173    625.366    -78.557  16512.928
      2650     392.473  -6097.265  -6026.292 -84175.436 -69407.799 -114267.524 -68850.985    771.479   1047.973    -87.377  16514.864
      2655     394.003  -6097.280  -6026.030 -84455.530 -69909.633 -113789.961 -69666.996    729.960    540.657    233.713  16516.800
      2660     394.674  -6097.117  -6025.746 -84565.462 -70064.411 -114359.621 -69272.353    493.844    512.134    410.615  16518.736
      2665     402.687  -6098.306  -6025.486 -85042.420 -70139.356 -115345.497 -69642.406    541.802    437.553    444.966  16520.672
      2670     391.675  -6096.005  -6025.176 -84590.128 -69312.714 -115363.463 -69094.207    327.163    267.658    444.224  16522.608
      2675     398.535  -6096.999  -6024.930 -85213.110 -69563.711 -116139.846 -69935.772    280.385    315.785    123.802  16524.544
      2680     399.364  -6096.857  -6024.638 -85356.491 -69809.727 -115448.075 -70811.671    840.463    180.839    187.498  16526.480
      2685     398.666  -6096.450  -6024.357 -85265.243 -70072.889 -114731.493 -70991.346    872.989    -42.174    166.735  16528.416
      2690     400.076  -6096.435  -6024.088 -85420.225 -70774.453 -114660.052 -70826.171   1031.610   -228.916    -61.813  16530.353
      2695     393.183  -6094.897  -6023.795 -85056.266 -70284.562 -114123.121 -70761.115    852.405   -214.834      9.411  16532.289
      2700     399.326  -6095.743  -6023.531 -85633.682 -70480.210 -115621.434 -70799.402    252.565    376.810    385.402  16534.225
      2705     402.438  -6096.023  -6023.248 -85929.650 -70526.583 -116079.542 -71182.823    281.594   -138.791    353.602  16536.161
      2710     407.460  -6096.651  -6022.968 -86287.660 -71010.040 -116467.676 -71385.263    162.512    -38.417   -187.300  16538.097
      2715     400.929  -6095.188  -6022.686 -86046.966 -70754.348 -116792.772 -70593.777    359.902    454.719    143.721  16540.033
      2720     388.289  -6092.606  -6022.390 -85386.615 -70622.644 -115945.204 -69591.997    361.666   -236.411    200.848  16541.969
      2725     398.975  -6094.273  -6022.125 -86211.058 -71362.948 -116602.377 -70667.848    327.045   -160.467   -168.186  16543.905
      2730     404.552  -6095.014  -6021.857 -86704.418 -71037.534 -117730.139 -71345.580   1169.107    633.141    133.334  16545.841
      2735     390.802  -6092.210  -6021.540 -85846.188 -69776.671 -117155.331 -70606.561    490.111    778.075   -232.160  16547.777
      2740     406.099  -6094.741  -6021.304 -86843.314 -70799.393 -117820.031 -71910.519    -59.036    -15.718   -577.568  16549.713
      2745     401.801  -6093.661  -6021.002 -86748.694 -71320.604 -117598.526 -71326.951    684.401    131.559    315.525  16551.650
      2750     392.866  -6091.750  -6020.706 -86080.811 -71302.936 -116676.560 -70262.937    262.389    688.021    -70.906  16553.586
      2755     410.170  -6094.626  -6020.453 -87312.188 -72957.832 -117714.408 -71264.325   -346.049    307.797   -431.238  16555.522
      2760     409.122  -6094.152  -6020.168 -87378.427 -72313.511 -117612.068 -72209.702    593.591     72.527    119.377  16557.458
      2765     394.079  -6091.122  -6019.859 -86461.548 -70750.700 -116860.338 -71773.605    944.430   -461.587    699.422  16559.394
      2770     403.514  -6092.565  -6019.595 -87157.028 -72357.527 -117483.552 -71630.004    318.054    302.512    777.906  16561.330
      2775     405.869  -6092.709  -6019.313 -87414.138 -72595.629 -117965.134 -71681.650     51.024    468.771   -343.711  16563.266
      2780     397.989  -6090.987  -6019.016 -87043.909 -71063.608 -118271.772 -71796.347    624.654   -407.247   -602.783  16565.202
      2785     399.695  -6091.014  -6018.735 -87278.838 -71249.561 -118963.343 -71623.609   1128.321     13.705    518.930  16567.138
      2790     410.740  -6092.744  -6018.468 -87877.874 -72195.055 -119792.247 -71646.321    386.328   -474.700    805.952  16569.074
      2795     409.019  -6092.132  -6018.167 -87938.103 -72224.544 -119206.182 -72383.582    139.905   -935.485    119.633  16571.011
      2800     406.054  -6091.312  -6017.883 -87958.197 -71737.175 -119418.944 -72718.471    256.668   -615.242    521.282  16572.947
      2805     402.008  -6090.289  -6017.592 -87744.149 -71465.187 -119549.706 -72217.555    568.167  -1185.861   -193.045  16574.883
      2810     404.375  -6090.438  -6017.312 -87891.813 -71854.889 -119422.416 -72398.135    884.127   -817.725   -599.401  16576.819
      2815     405.505  -6090.361  -6017.032 -88106.203 -73133.934 -119035.328 -72149.346    582.925   -907.126    613.875  16578.755
      2820     399.594  -6088.992  -6016.732 -87851.869 -72745.675 -119226.548 -71583.386    -78.911   -535.961    552.796  16580.691
      2825     406.011  -6089.878  -6016.457 -88315.153 -71964.750 -119867.919 -73112.790    498.436   -213.352      6.428  16582.627
      2830     406.468  -6089.672  -6016.168 -88398.602 -71842.675 -119807.423 -73545.709    486.976   -214.035    446.945  16584.563
      2835     403.920  -6088.920  -6015.877 -88366.990 -72378.183 -120016.458 -72706.330   -399.049   -559.943    819.442  16586.499
      2840     413.624  -6090.398  -6015.601 -89079.990 -73724.566 -120915.616 -72599.789   -439.025   -563.769    437.938  16588.435
      2845     409.210  -6089.301  -6015.302 -88991.225 -73469.414 -121134.381 -72369.880    -62.874    -55.302   -125.982  16590.371
      2850     401.394  -6087.591  -6015.005 -88499.678 -72309.026 -120579.003 -72611.005   -156.997   -210.931   -120.453  16592.308
      2855     405.770  -6088.100  -6014.723 -88811.734 -72416.888 -120711.135 -73307.178   -838.659    -69.864   -182.319  16594.244
      2860     410.869  -6088.734  -6014.434 -89274.160 -73225.288 -121310.442 -73286.751    -43.343   -334.303     73.465  16596.180
      2865     409.788  -6088.256  -6014.152 -89275.382 -72967.983 -120997.047 -73861.116    336.392    -32.898     83.093  16598.116
      2870     399.770  -6086.140  -6013.848 -88731.687 -72568.297 -120330.511 -73296.253    482.300    352.840     -2.521  16600.052
      2875     406.651  -6087.106  -6013.570 -89324.848 -73709.826 -120986.022 -73278.696     24.277   -175.250   -247.087  16601.988
      2880     411.346  -6087.677  -6013.291 -89695.718 -73741.797 -121390.922 -73954.434    -19.236    444.376      7.015  16603.924
      2885     404.191  -6086.069  -6012.977 -89238.630 -73527.906 -121237.228 -72950.757    584.695    472.273    478.594  16605.860
[...]
     49305     984.649  -5959.291  -5781.232   6600.617  10128.473  -1050.472  10723.850    296.132   2624.307    830.291  34580.537
     49310     969.866  -5956.551  -5781.165   6591.356  10449.247  -1461.569  10786.391   1028.005   2070.816    174.649  34582.473
     49315     987.679  -5959.821  -5781.214   5914.145   9774.821  -2100.119  10067.733   1495.857   1474.915     75.990  34584.409
     49320    1012.535  -5964.332  -5781.230   5196.487   9999.660  -2260.079   7849.880   1943.342   1770.947    831.488  34586.346
     49325     984.867  -5959.250  -5781.151   6302.712  10837.013   -991.347   9062.469   1795.817    957.350    649.096  34588.282
     49330     976.190  -5957.697  -5781.168   7306.970  11418.540   1007.918   9494.452   2372.553    207.138    550.166  34590.218
     49335     988.326  -5959.938  -5781.214   7266.685  10864.627   1689.566   9245.863   2423.340    315.852    588.463  34592.154
     49340     979.541  -5958.293  -5781.158   7463.730  10580.994   1681.489  10128.706   2502.281   -374.862    257.736  34594.090
     49345    1022.359  -5966.122  -5781.244   6246.076   9605.459   -171.584   9304.352   2079.710   -910.186   -516.568  34596.026
     49350     997.208  -5961.522  -5781.192   6861.139  10896.014    123.963   9563.440    719.989   -709.184    252.662  34597.962
     49355     982.549  -5958.891  -5781.212   7213.093  11111.468   -410.204  10938.013    276.946   -267.738    304.670  34599.898
     49360     981.486  -5958.666  -5781.179   7329.032  10756.763    611.916  10618.418   1050.983  -1160.006   -369.516  34601.834
     49365     987.151  -5959.720  -5781.209   7379.602  10186.924   1037.667  10914.215    927.268    363.395   -224.428  34603.770
     49370     993.647  -5960.856  -5781.170   7272.231  10322.769    743.216  10750.708    150.760    924.148    390.988  34605.706
     49375    1014.297  -5964.663  -5781.243   6645.962   9939.504   -248.086  10246.469   -133.130   1116.455   1063.005  34607.643
     49380     970.434  -5956.631  -5781.143   7196.430  10320.854    537.115  10731.320   -616.926   1074.343    935.163  34609.579
     49385     972.213  -5956.978  -5781.168   6868.281  11191.021   -184.260   9598.082   -420.659    618.670   1925.542  34611.515
     49390     991.745  -5960.556  -5781.214   5970.576  10091.482  -1755.845   9576.091   -325.180    767.982   1615.670  34613.451
     49395     975.079  -5957.500  -5781.172   6683.808   9318.009   -315.874  11049.288  -1303.133   1139.901   1604.501  34615.387
     49400     982.132  -5958.789  -5781.185   7083.351  10399.574    581.961  10268.518  -2143.586    419.060   2120.722  34617.323
     49405    1002.051  -5962.386  -5781.180   6988.244  10383.349    715.349   9866.034  -1554.235    717.811   1409.377  34619.259
     49410     991.427  -5960.465  -5781.180   7194.409  10389.451   1265.741   9928.033  -1762.295    333.080   1073.291  34621.195
     49415     994.349  -5961.022  -5781.209   6646.866  10000.408    342.681   9597.509  -2436.145   -652.656    534.636  34623.131
     49420    1000.924  -5962.216  -5781.214   6136.313   9023.844    454.020   8931.076  -1327.633   -757.317     14.999  34625.067
     49425     983.877  -5959.075  -5781.156   6772.263  10307.304   1327.123   8682.362   -257.671  -1142.407    106.848  34627.003
     49430    1009.793  -5963.832  -5781.226   6309.359  10019.366    608.000   8300.710    323.271  -1014.999   -405.795  34628.940
     49435     982.516  -5958.811  -5781.138   6773.910  11212.468   1350.910   7758.351    568.498   -565.793    137.720  34630.876
     49440     982.600  -5958.892  -5781.204   6479.817  11123.023   -159.602   8476.029   -314.057   -481.993    893.007  34632.812
     49445     984.902  -5959.278  -5781.173   6243.852  10165.690    -63.765   8629.630   -615.427   -551.052    728.924  34634.748
     49450     992.495  -5960.618  -5781.140   5858.253   9606.001   -533.242   8501.999   -803.792    103.124     51.991  34636.684
     49455    1000.304  -5962.084  -5781.194   5731.181   9460.493  -1755.216   9488.265  -2102.590   -827.697   -148.065  34638.620
     49460     960.127  -5954.732  -5781.108   7020.610  10660.046  -1138.756  11540.541  -2344.100   -620.959   -749.640  34640.556
     49465    1001.092  -5962.223  -5781.190   6286.172   9640.816  -2014.994  11232.694  -1777.740    702.789    448.147  34642.492
     49470     992.209  -5960.560  -5781.134   6735.061   9656.793  -1539.189  12087.580  -1883.135   1013.225    584.942  34644.428
     49475     976.636  -5957.746  -5781.136   7004.273  10843.341  -1824.182  11993.661  -1733.896    912.558   -186.202  34646.364
     49480     981.534  -5958.609  -5781.114   6788.856   9833.084   -803.251  11336.733  -1279.167    272.076   -457.203  34648.301
     49485    1007.786  -5963.424  -5781.181   6284.645   8933.318  -1083.335  11003.952  -1696.554    337.917   -310.342  34650.237
     49490     990.115  -5960.165  -5781.117   6974.213   9850.218    -91.218  11163.639  -1371.098   -176.632   -157.513  34652.173
     49495     992.529  -5960.628  -5781.145   7046.774   9639.115    838.932  10662.273  -2027.195    211.447   -214.191  34654.109
     49500     995.927  -5961.201  -5781.102   6888.790   9623.766   -127.510  11170.115  -2498.036   -544.865    198.760  34656.045
     49505    1018.319  -5965.363  -5781.215   6223.774   9277.817   -327.304   9720.808  -1811.565   -406.364    488.137  34657.981
     49510     968.494  -5956.210  -5781.073   7146.077  10583.565    574.010  10280.656  -1601.176   -370.451    501.163  34659.917
     49515     986.987  -5959.629  -5781.147   6318.693  10127.146   -986.306   9815.240  -1807.447    501.404   -135.023  34661.853
     49520     980.916  -5958.490  -5781.106   6083.104   9371.913   -886.525   9763.923  -1757.464   -224.468   -204.759  34663.789
     49525     984.623  -5959.118  -5781.064   6211.623   9574.036   -721.552   9782.386  -1366.559   -744.164    -49.248  34665.725
     49530    1005.323  -5962.925  -5781.127   5425.746   9486.741  -2360.798   9151.295   -720.084    651.606   -368.226  34667.661
     49535     977.449  -5957.841  -5781.084   5868.842   9544.150  -1920.967   9983.342  -1085.020    127.832   -857.387  34669.598
     49540     976.660  -5957.677  -5781.063   6096.663   9546.027  -1085.699   9829.660   -804.013    423.227   -455.919  34671.534
     49545     999.070  -5961.764  -5781.098   6297.299  10442.259  -1961.612  10411.251  -1143.554    220.566   -416.746  34673.470
     49550     986.708  -5959.497  -5781.065   7429.390  11530.919   -443.954  11201.206  -1199.217    990.857   -337.592  34675.406
     49555     992.967  -5960.680  -5781.117   7443.481  11118.510    189.550  11022.384   -572.662   2101.698   -730.135  34677.342
     49560     983.513  -5958.881  -5781.028   6906.464  11702.838   -264.720   9281.273   -452.400   1592.141  -1001.530  34679.278
     49565     973.938  -5957.176  -5781.054   6700.051  10405.873   -547.640  10241.919   -228.885   1995.137  -1384.155  34681.214
     49570     989.388  -5959.985  -5781.069   6265.028  10354.440  -1242.397   9683.043    142.311   1671.586  -1811.116  34683.150
     49575    1006.938  -5963.157  -5781.067   6321.844  10530.916   -992.388   9427.003   -245.263   1673.818   -809.735  34685.086
     49580     989.342  -5959.953  -5781.045   7484.295  10347.807    884.616  11220.462  -1158.270   1386.160  -1413.524  34687.022
     49585    1005.492  -5962.931  -5781.103   7397.726   9890.121   1516.134  10786.924   -584.434   1307.560  -1934.175  34688.958
     49590     995.273  -5961.002  -5781.022   7595.046  10254.222   1605.644  10925.273   -210.748    984.799  -1060.431  34690.895
     49595     978.283  -5957.978  -5781.071   7458.730   9832.082   1657.874  10886.235    -60.679    152.335   -419.424  34692.831
     49600     946.606  -5952.160  -5780.980   7429.263  10761.646   1368.498  10157.644   -536.858    356.910    -74.758  34694.767
     49605    1003.764  -5962.613  -5781.097   6065.409   8853.032    706.770   8636.425    113.786    682.755   -390.482  34696.703
     49610    1000.024  -5961.869  -5781.029   6300.766   8526.591    941.056   9434.653    508.653   1292.251  -1128.624  34698.639
     49615     997.295  -5961.377  -5781.032   6179.375   9261.687   -687.877   9964.315     46.340    707.378   -584.244  34700.575
     49620     983.487  -5958.869  -5781.021   7003.721   9646.019    388.380  10976.763    820.004   1112.810   -767.185  34702.511
     49625     967.769  -5955.961  -5780.954   7764.698  11224.472   1516.504  10553.117    233.940   1212.054   -946.182  34704.447
     49630     982.758  -5958.737  -5781.020   7397.633  11143.237   1246.327   9803.334     47.157    808.408   -668.066  34706.383
     49635     981.250  -5958.411  -5780.966   7475.144  11168.486   1518.728   9738.219    958.661    175.991   -751.805  34708.319
     49640    1014.366  -5964.458  -5781.026   6490.334  10422.460    693.569   8354.974    867.251    -15.493  -1117.805  34710.255
     49645    1007.830  -5963.233  -5780.982   6370.696  10255.174    776.418   8080.497   1075.987    289.752   -974.927  34712.192
     49650     995.210  -5960.961  -5780.993   6358.315   9217.480    713.786   9143.678   1010.566    748.893   -676.415  34714.128
     49655     983.837  -5958.888  -5780.976   6886.170   9746.251    638.851  10273.407   1113.887    716.600  -1082.252  34716.064
     49660     991.101  -5960.167  -5780.941   6895.030  10377.000   -201.013  10509.103    924.498    284.920   -559.449  34718.000
     49665     982.664  -5958.695  -5780.995   7180.221  11391.726    321.515   9827.423   -217.855    573.311    295.150  34719.936
     49670     963.988  -5955.237  -5780.915   7377.006  12084.726    805.361   9240.931   -715.199     82.774   -169.990  34721.872
     49675    1012.647  -5964.114  -5780.992   5785.396  10597.432  -1563.573   8322.327   -781.578    304.859   -133.337  34723.808
     49680     995.295  -5960.922  -5780.938   6388.013  11317.656  -2145.203   9991.585   -948.644    919.695   -115.545  34725.744
     49685     972.086  -5956.702  -5780.915   7231.264  11687.427   -679.108  10685.473   -342.749   1222.293   -846.489  34727.680
     49690     968.985  -5956.100  -5780.874   7810.854  11816.626    -35.217  11651.154    -85.118   1825.281  -1676.744  34729.616
     49695     997.749  -5961.322  -5780.894   7024.205  11314.914  -1104.844  10862.543   -476.228   1132.188   -843.319  34731.552
     49700     998.118  -5961.404  -5780.909   7068.472  10126.266   -523.272  11602.421   -603.147    842.058  -1294.136  34733.489
     49705     989.821  -5959.837  -5780.842   7460.625   9964.039    234.310  12183.527   -556.108    504.331  -1033.474  34735.425
     49710     998.576  -5961.458  -5780.881   7317.873  10329.919   -279.999  11903.699  -1153.585    520.278   -789.857  34737.361
     49715     996.839  -5961.157  -5780.893   7124.380   9567.268    295.024  11510.849   -423.811    402.513  -1267.883  34739.297
     49720     984.034  -5958.770  -5780.822   7099.856   8851.306    240.417  12207.845   -143.649   -704.621  -1630.515  34741.233
     49725     982.615  -5958.552  -5780.861   7105.578   9471.686    466.752  11378.295    101.434   -462.274  -2630.654  34743.169
     49730     988.820  -5959.599  -5780.786   6863.540   9559.721    647.761  10383.139   -396.356    -53.185  -1814.790  34745.105
     49735    1000.099  -5961.738  -5780.885   7132.775   9681.944   1438.224  10278.156     43.879     33.779  -1229.678  34747.041
     49740     968.378  -5955.883  -5780.767   8238.366  11447.006   2265.858  11002.235    284.831   -796.962  -1071.776  34748.977
     49745    1024.494  -5966.131  -5780.867   6705.843  10380.457    584.827   9152.244    -89.316   -167.763    482.391  34750.913
     49750    1008.196  -5963.179  -5780.861   7043.244  11307.221    909.434   8913.076     47.691     35.706      2.784  34752.849
     49755     951.816  -5952.840  -5780.719   8448.493  13050.874   1734.300  10560.305   -504.948    754.651   -153.905  34754.786
     49760     998.166  -5961.370  -5780.867   7475.307  12435.672   1212.463   8777.788   -672.206    734.266   -529.284  34756.722
     49765     984.060  -5958.705  -5780.753   7797.717  11958.981   1697.240   9736.931     26.087   -137.452   -192.963  34758.658
     49770    1010.164  -5963.519  -5780.846   6690.205  10394.690    314.883   9361.043    486.174   -268.567   -852.701  34760.594
     49775     982.848  -5958.425  -5780.691   6824.252  11273.666    356.612   8842.478    214.236   -156.479   -321.386  34762.530
     49780    1010.546  -5963.546  -5780.804   5195.410   9255.988  -1338.035   7668.276   -661.251     34.442   -808.195  34764.466
     49785     988.563  -5959.500  -5780.733   4968.890   8281.481  -1837.878   8463.068   -736.532    103.946   -413.734  34766.402
     49790     966.194  -5955.424  -5780.702   5621.922   9803.511  -1358.639   8420.895   -350.574    112.799    570.304  34768.338
     49795     973.072  -5956.699  -5780.734   5638.061   9824.524  -1315.834   8405.493   -173.560    384.143    531.011  34770.274
     49800     955.543  -5953.455  -5780.659   5883.142   9548.224  -1302.683   9403.886    365.672    544.465    510.301  34772.210
     49805     964.010  -5955.003  -5780.676   6542.974  10425.723   -472.621   9675.820    180.100    813.034    186.005  34774.146
     49810    1012.111  -5963.786  -5780.761   6409.730  10439.470  -1470.858  10260.578    514.395    723.561   -362.402  34776.083
     49815     990.032  -5959.697  -5780.665   7376.926  10692.253    299.097  11139.427    412.601    130.084   -457.951  34778.019
     49820     973.772  -5956.739  -5780.647   7421.968  10419.797    708.737  11137.368     46.436   -365.629  -1150.644  34779.955
     49825    1002.010  -5961.901  -5780.703   6329.910   9482.360  -1151.830  10659.200   -430.991     73.157   -863.024  34781.891
     49830     994.062  -5960.402  -5780.641   6803.116   9760.519   -954.166  11602.993     45.561   1067.494   -319.829  34783.827
     49835    1010.576  -5963.450  -5780.703   6866.130   9427.980    653.896  10516.513    837.883   1092.946   -649.871  34785.763
     49840     992.769  -5960.140  -5780.613   7323.276   9542.169   1711.216  10716.443   1823.356    729.563   -971.143  34787.699
     49845    1007.247  -5962.808  -5780.662   6762.950   9322.675    656.675  10309.499   1526.131    591.930   -761.468  34789.635
     49850     966.687  -5955.380  -5780.569   7805.282  11021.323   1735.753  10658.769    635.816   1159.240   -198.033  34791.571
     49855     984.681  -5958.699  -5780.634   7152.308  10195.932   1457.959   9803.032    424.897   2275.394    749.670  34793.507
     49860     988.854  -5959.399  -5780.580   6647.609   9533.275    791.121   9618.430    369.401   2024.078    759.748  34795.443
     49865    1004.423  -5962.203  -5780.568   6027.288   9141.357   -926.147   9866.655    812.874   1966.738    821.930  34797.380
     49870    1020.457  -5965.142  -5780.608   5657.359   8425.842  -1759.861  10306.097    533.512   1330.969    501.001  34799.316
     49875     976.001  -5957.012  -5780.517   7189.426   9145.284   1019.565  11403.429    847.718    660.507   -686.012  34801.252
     49880     973.319  -5956.526  -5780.516   7069.617  10753.436   -285.489  10740.904    734.920    682.607   -467.601  34803.188
     49885     993.622  -5960.203  -5780.522   6143.091   8863.479     74.403   9491.391    448.633   -336.277   -392.285  34805.124
     49890    1015.648  -5964.201  -5780.537   5739.865   7992.456   -487.681   9714.821    -16.063   -485.037    122.470  34807.060
     49895     985.711  -5958.727  -5780.476   6370.453   8743.065   -524.214  10892.508    -34.655   -221.622    120.133  34808.996
     49900     966.698  -5955.285  -5780.472   6660.622   9412.037     37.066  10532.763   -678.607   -386.700   -188.902  34810.932
     49905     998.618  -5961.113  -5780.528   6002.536   8235.576   -518.451  10290.482   -448.113   -289.502    409.774  34812.868
     49910     986.244  -5958.799  -5780.451   6648.277   9070.026   -386.846  11261.653    237.996    134.937    127.149  34814.804
     49915     985.595  -5958.678  -5780.448   6767.550  10516.788  -1109.636  10895.498    -28.237   -614.546    228.452  34816.740
     49920    1001.143  -5961.485  -5780.444   6326.275  10563.666  -2117.444  10532.603    522.116   -153.167    150.361  34818.677
     49925     993.361  -5960.060  -5780.426   6872.936  10342.791   -276.159  10552.176    296.521     61.656    583.927  34820.613
     49930    1002.234  -5961.644  -5780.405   6278.303  10062.059  -1656.846  10429.697   -424.384    999.997    630.278  34822.549
     49935     998.714  -5961.015  -5780.413   6376.954  10383.638  -1865.628  10612.854    102.339    537.981    962.228  34824.485
     49940     985.347  -5958.559  -5780.374   7065.032  10393.226   -628.478  11430.347    913.769    953.261   1314.901  34826.421
     49945     979.525  -5957.481  -5780.349   6933.798  10514.492   -721.754  11008.656    620.455   1485.620   1859.547  34828.357
     49950     979.480  -5957.528  -5780.404   6690.789   9512.706   -710.232  11269.893    237.065   -112.467   2246.843  34830.293
     49955     975.106  -5956.645  -5780.312   6444.859  10261.373  -2238.594  11311.798    614.344      7.499   2008.767  34832.229
     49960     987.862  -5958.931  -5780.291   6551.333  10826.781  -1785.264  10612.483   1501.328    798.978   1612.216  34834.165
     49965    1009.462  -5962.888  -5780.343   6510.910  10384.322  -1076.522  10224.930   1251.685    624.471   1567.983  34836.101
     49970     998.988  -5960.946  -5780.294   7046.801  11353.830   -644.459  10431.032   1268.450   1612.249   1528.623  34838.038
     49975    1003.408  -5961.732  -5780.280   7199.415  10178.454    506.602  10913.187    831.323    790.511   1431.027  34839.974
     49980    1003.370  -5961.752  -5780.308   7371.516   9095.109   1469.764  11549.675    -72.365    641.556    771.105  34841.910
     49985     982.272  -5957.917  -5780.288   7641.920  10082.191    775.343  12068.225   -418.047    884.456    314.668  34843.846
     49990     957.894  -5953.430  -5780.209   7964.725  10321.373   1882.507  11690.295   -913.679    711.035   -580.892  34845.782
     49995    1003.207  -5961.696  -5780.281   6665.633   9278.809   1008.909   9709.180  -1328.266    534.358   -256.221  34847.718
     50000    1011.821  -5963.195  -5780.222   6189.143   9152.744   -397.069   9811.753  -1256.700    328.226    188.915  34849.654
Loop time of 113.919 on 1 procs for 50000 steps with 1400 atoms

Performance: 189.609 ns/day, 0.127 hours/ns, 438.910 timesteps/s
18.8% CPU use with 1 MPI tasks x 1 OpenMP threads

MPI task timing breakdown:
Section |  min time  |  avg time  |  max time  |%varavg| %total
---------------------------------------------------------------
Pair    | 85.305     | 85.305     | 85.305     |   0.0 | 74.88
Neigh   | 19.747     | 19.747     | 19.747     |   0.0 | 17.33
Comm    | 1.3751     | 1.3751     | 1.3751     |   0.0 |  1.21
Output  | 4.6711     | 4.6711     | 4.6711     |   0.0 |  4.10
Modify  | 2.2025     | 2.2025     | 2.2025     |   0.0 |  1.93
Other   |            | 0.6173     |            |       |  0.54

Nlocal:           1400 ave        1400 max        1400 min
Histogram: 1 0 0 0 0 0 0 0 0 0
Nghost:           2801 ave        2801 max        2801 min
Histogram: 1 0 0 0 0 0 0 0 0 0
Neighs:          34119 ave       34119 max       34119 min
Histogram: 1 0 0 0 0 0 0 0 0 0
FullNghs:        68237 ave       68237 max       68237 min
Histogram: 1 0 0 0 0 0 0 0 0 0

Total # of neighbors = 68237
Ave neighs/atom = 48.740714
Neighbor list builds = 10000
Dangerous builds = 10000

###Write a binary restart file of the current state of the simulation
write_restart restart.deform_NVT
System init for write_restart ...


Total wall time: 0:01:53
