LAMMPS (23 Jun 2022 - Update 1)
OMP_NUM_THREADS environment is not set. Defaulting to 1 thread. (src/comm.cpp:98)
  using 1 OpenMP thread(s) per MPI task
Loaded 1 plugins from C:\Users\morga\AppData\Local\LAMMPS 64-bit 23Jun2022\plugins
#### set simulation box #####
units metal                        ## use metal unit system - see lammps manual
boundary p p p
atom_style atomic                  ## default atom style for metals

read_restart restart.equil_NPT     ## read in restart file
Reading restart file ...
  restart file = 23 Jun 2022, LAMMPS = 23 Jun 2022
  restoring atom style atomic from restart
  orthogonal box = (-0.042790004 -0.11981201 -0.042790004) to (17.64279 49.399812 17.64279)
  1 by 1 by 1 MPI processor grid
  pair style eam stores no restart info
  1400 atoms
  read_restart CPU = 0.002 seconds


pair_style eam                     ## set interatomic potential style to be EAM
pair_coeff * * Ni_u3.eam
Reading eam potential file Ni_u3.eam with DATE: 2007-06-11

neighbor 0.3 bin ## define parameters for neighbor list
neigh_modify delay 5 ## define parameters for neighbor list

compute c1 all pe/atom                              ### compute potential energy per atom
compute c2 all cna/atom 2.005                       ### compute CNA per atom
compute c3 all stress/atom	NULL                    ### compute stress tensor per atom



thermo 5 ## Output system information every 5 timesteps
#### Output step No., temperature, potential energy, total energy,
#### total pressure, pressure component, box volume
thermo_style custom step temp pe etotal press pxx pyy pzz pxy pxz pyz vol
thermo_modify format float %10.3f ## set output format
timestep 0.005 ## set timestep size

### system deform by NVT+Deform ###
reset_timestep 0
dump 1a all custom 200 dump_FCCNi_deform_001.atom id type x y z c_c1 c_c2 c_c3[1] c_c3[2] c_c3[3]
#Using NVT to control temperature
fix 1 all nvt temp 100 100 5
#Using "fix deform" to perform tensile test along y direction
fix 2 all deform 1 y erate 0.005 remap x
run  50000	## run the simulation for 50000 steps
Unused restart file global fix info:
  fix style: npt, fix ID: 1f
Neighbor list info ...
  update every 1 steps, delay 5 steps, check yes
  max neighbors/atom: 2000, page size: 100000
  master list distance cutoff = 5.1
  ghost atom cutoff = 5.1
  binsize = 2.55, bins = 7 20 7
  2 neighbor lists, perpetual/occasional/extra = 1 1 0
  (1) pair eam, perpetual
      attributes: half, newton on
      pair build: half/bin/atomonly/newton
      stencil: half/bin/3d
      bin: standard
  (2) compute cna/atom, occasional
      attributes: full, newton on
      pair build: full/bin/atomonly
      stencil: full/bin/3d
      bin: standard
Per MPI rank memory allocation (min/avg/max) = 8.348 | 8.348 | 8.348 Mbytes
   Step          Temp          PotEng         TotEng         Press           Pxx            Pyy            Pzz            Pxy            Pxz            Pyz           Volume    
         0     296.853  -6172.581  -6118.899  -1499.418  -1410.228  -1154.451  -1933.574    752.942    339.669    595.935  15488.735
         5     310.732  -6175.115  -6118.924  -2394.667  -2509.769  -2276.197  -2398.034   -120.484    338.110    366.760  15490.671
        10     300.060  -6173.161  -6118.900  -2036.670  -1906.324  -2289.193  -1914.494     -7.465    427.696    226.804  15492.607
        15     291.786  -6171.671  -6118.906  -1859.123  -1786.323  -2037.887  -1753.160    111.328    707.870    316.385  15494.543
        20     299.806  -6173.142  -6118.927  -2561.679  -2734.301  -2530.975  -2419.760    364.290    664.606    321.123  15496.480
        25     305.071  -6174.120  -6118.952  -3035.418  -3091.959  -3140.550  -2873.746    210.398    258.881    123.278  15498.416
        30     298.247  -6172.886  -6118.952  -2854.174  -2781.438  -3232.487  -2548.596    295.085    -63.242    103.329  15500.352
        35     303.611  -6173.904  -6119.000  -3372.959  -3994.275  -3086.340  -3038.262    304.804     77.026    213.662  15502.288
        40     298.986  -6173.089  -6119.022  -3412.112  -3848.602  -3253.975  -3133.760    392.462   -204.211    324.940  15504.224
        45     295.218  -6172.436  -6119.050  -3427.812  -3445.624  -4080.318  -2757.493    720.793    -37.293    188.184  15506.160
        50     306.145  -6174.476  -6119.114  -4239.258  -3991.164  -4434.403  -4292.205    178.849    306.172     37.783  15508.096
        55     300.456  -6173.484  -6119.151  -4169.967  -3557.078  -4259.575  -4693.246    155.245    129.069    459.045  15510.032
        60     292.008  -6171.999  -6119.194  -4012.869  -3518.931  -4775.360  -3744.314    537.515    358.111    778.607  15511.968
        65     296.237  -6172.820  -6119.250  -4360.107  -4100.314  -5346.156  -3633.850    475.163    504.455    -71.555  15513.904
        70     309.026  -6175.211  -6119.328  -5338.818  -4797.974  -6745.262  -4473.219    140.541    243.988   -406.932  15515.840
        75     299.543  -6173.557  -6119.389  -5039.779  -4670.839  -5989.661  -4458.837    509.182    141.334    159.484  15517.777
        80     284.174  -6170.817  -6119.428  -4550.426  -4630.693  -5196.144  -3824.439    388.218    583.594    262.060  15519.713
        85     298.486  -6173.511  -6119.534  -5567.568  -5383.953  -6542.474  -4776.279    202.576     52.900   -115.153  15521.649
        90     301.217  -6174.064  -6119.594  -5858.948  -5377.399  -6914.013  -5285.433    270.782   -151.906   -232.841  15523.585
        95     302.076  -6174.317  -6119.691  -6228.101  -5753.988  -7283.068  -5647.246   -278.959    445.439   -233.097  15525.521
       100     288.995  -6172.001  -6119.740  -5682.976  -5179.969  -6943.300  -4925.658   -296.381    204.909   -457.420  15527.457
       105     301.501  -6174.384  -6119.862  -6685.589  -6047.316  -7796.603  -6212.848   -127.718   -281.635   -140.487  15529.393
       110     292.990  -6172.905  -6119.922  -6512.272  -5431.363  -7548.620  -6556.834    -17.343   -398.301    347.191  15531.329
       115     296.740  -6173.689  -6120.028  -6979.878  -5804.513  -8558.416  -6576.704    -73.524    -94.353   -151.460  15533.265
       120     297.951  -6173.993  -6120.113  -7283.445  -6432.513  -9315.031  -6102.790    297.101   -296.464    -76.144  15535.201
       125     293.040  -6173.184  -6120.193  -7207.132  -6178.063  -8853.574  -6589.758    -36.160    340.213    416.664  15537.137
       130     297.958  -6174.179  -6120.298  -7772.553  -6674.935  -9506.887  -7135.838   -332.506   -340.102    380.579  15539.074
       135     291.072  -6173.001  -6120.365  -7612.843  -6985.879 -10123.225  -5729.424    181.086   -179.101    -37.300  15541.010
       140     299.021  -6174.561  -6120.487  -8375.545  -7794.580 -10531.150  -6800.905    139.878    -29.685   -203.857  15542.946
       145     288.736  -6172.755  -6120.542  -7994.294  -6918.900  -9573.296  -7490.686   -147.742   -216.070     11.990  15544.882
       150     295.106  -6174.019  -6120.653  -8622.676  -7715.425 -10253.210  -7899.394    554.586    -60.809    399.592  15546.818
       155     290.223  -6173.200  -6120.717  -8586.844  -8144.046 -10507.529  -7108.956    763.317     -6.102    182.942  15548.754
       160     294.090  -6173.995  -6120.813  -9033.875  -8227.536 -11252.908  -7621.180    218.389    -83.486    804.434  15550.690
       165     293.545  -6173.981  -6120.898  -9277.073  -7956.840 -11257.626  -8616.752    640.245    -67.740    750.348  15552.626
       170     287.711  -6172.989  -6120.961  -9184.072  -7827.044 -11263.628  -8461.544    557.028   -305.516    524.729  15554.562
       175     296.011  -6174.596  -6121.067  -9908.614  -8750.946 -12476.739  -8498.157     93.017    296.115    718.414  15556.498
       180     286.194  -6172.866  -6121.113  -9592.085  -8786.729 -11959.328  -8030.197    367.027    -69.510    230.124  15558.434
       185     292.291  -6174.067  -6121.211 -10230.209  -9081.502 -12676.027  -8933.099   -132.783   -348.802    117.392  15560.371
       190     289.998  -6173.702  -6121.260 -10303.723  -8890.422 -12585.855  -9434.893   -285.232   -251.494     35.620  15562.307
       195     296.001  -6174.888  -6121.360 -10891.819  -9842.513 -13213.175  -9619.770    159.636    -25.018     38.841  15564.243
       200     284.418  -6172.832  -6121.399 -10499.622  -9960.333 -12939.640  -8598.893    373.683    -21.990    158.931  15566.179
       205     291.801  -6174.256  -6121.488 -11169.938 -10255.666 -13405.614  -9848.534   -259.947   -357.721   -278.038  15568.115
       210     291.696  -6174.298  -6121.549 -11326.129 -10387.592 -13552.825 -10037.970   -235.901   -122.955    139.737  15570.051
       215     290.762  -6174.201  -6121.621 -11669.238 -10848.875 -13867.706 -10291.132    159.720     66.507   -210.020  15571.987
       220     282.058  -6172.683  -6121.677 -11358.340  -9734.835 -13950.976 -10389.209   -153.241     46.766   -232.683  15573.923
       225     287.104  -6173.659  -6121.741 -11867.223 -10506.941 -14521.918 -10572.810     67.667     13.465    327.391  15575.859
       230     295.533  -6175.266  -6121.823 -12575.099 -11946.336 -15337.236 -10441.724   -187.683    185.860    230.085  15577.795
       235     283.163  -6173.072  -6121.866 -12090.741 -10882.314 -14705.532 -10684.377    153.773    264.539    836.670  15579.731
       240     285.766  -6173.614  -6121.938 -12563.297 -11046.888 -15346.736 -11296.268    130.328    415.118    402.693  15581.668
       245     291.872  -6174.787  -6122.007 -13080.191 -11807.046 -16452.595 -10980.931    -15.442    266.268    -23.164  15583.604
       250     288.296  -6174.202  -6122.068 -13195.715 -12006.212 -16389.319 -11191.612    644.570     12.668    301.557  15585.540
       255     280.380  -6172.822  -6122.120 -12985.248 -11709.886 -15774.139 -11471.719     56.581     16.978    327.336  15587.476
       260     292.349  -6175.075  -6122.208 -13894.663 -12436.829 -16871.166 -12375.993    -36.119    437.309   -610.577  15589.412
       265     284.895  -6173.773  -6122.254 -13705.673 -12613.284 -16907.941 -11595.793     44.485    730.845   -557.274  15591.348
       270     283.579  -6173.606  -6122.325 -13805.533 -12622.469 -17035.889 -11758.241    210.624     80.445    -75.031  15593.284
       275     289.897  -6174.820  -6122.397 -14448.063 -12609.603 -17661.678 -13072.908    583.029    -81.960    110.582  15595.220
       280     284.185  -6173.849  -6122.458 -14447.478 -12678.962 -17739.529 -12923.944    194.399    686.374     46.544  15597.156
       285     279.533  -6173.069  -6122.520 -14386.135 -12518.829 -17894.752 -12744.823    187.357   -298.819    228.041  15599.092
       290     286.444  -6174.395  -6122.596 -14993.131 -13533.639 -18299.066 -13146.690    -42.012    111.648    165.420  15601.028
       295     286.250  -6174.432  -6122.668 -15245.795 -13634.957 -18556.530 -13545.899    -24.891    163.663    -10.655  15602.965
       300     277.870  -6172.966  -6122.718 -15050.150 -13175.677 -18846.412 -13128.361    -90.319   -248.157    354.592  15604.901
       305     288.677  -6175.017  -6122.814 -15846.297 -14239.419 -19744.315 -13555.158   -261.734    356.139    145.899  15606.837
       310     285.162  -6174.432  -6122.865 -15955.894 -14279.249 -20073.641 -13514.793     76.094   -132.357   -175.714  15608.773
       315     282.532  -6174.045  -6122.954 -16022.569 -14204.926 -19998.373 -13864.408     93.099   -264.864   -315.468  15610.709
       320     275.408  -6172.799  -6122.996 -15874.644 -13941.920 -19712.278 -13969.732    -20.001    -91.077   -284.191  15612.645
       325     285.696  -6174.766  -6123.102 -16698.559 -14842.221 -20860.510 -14392.948    551.412     88.757    136.970  15614.581
       330     280.032  -6173.790  -6123.150 -16636.605 -14920.107 -20584.906 -14404.801    -76.668     97.257    113.676  15616.517
       335     282.099  -6174.240  -6123.227 -16973.538 -15223.469 -21051.717 -14645.429   -254.064     16.649    238.848  15618.453
       340     287.854  -6175.380  -6123.326 -17531.098 -15535.945 -22082.310 -14975.041    -34.895    -37.735    282.357  15620.389
       345     275.789  -6173.236  -6123.364 -17177.240 -14968.093 -21395.748 -15167.879   -246.484   -341.460    218.283  15622.325
       350     279.552  -6174.017  -6123.464 -17563.575 -15783.608 -21401.186 -15505.932   -582.490     82.687    610.538  15624.262
       355     280.632  -6174.282  -6123.534 -17918.756 -16520.187 -21845.139 -15390.942   -795.020    223.168    859.075  15626.198
       360     277.475  -6173.784  -6123.607 -17975.613 -16252.225 -22039.605 -15635.010   -442.452   -571.024    704.952  15628.134
       365     276.138  -6173.621  -6123.685 -18172.315 -16296.051 -22547.935 -15672.959   -195.127   -545.461    590.922  15630.070
       370     278.991  -6174.210  -6123.758 -18545.723 -16548.729 -23036.126 -16052.315    170.845     59.360    227.381  15632.006
       375     282.245  -6174.882  -6123.842 -18903.355 -16770.872 -23524.478 -16414.714    -70.926     -3.385    454.934  15633.942
       380     278.628  -6174.303  -6123.917 -19028.186 -17026.310 -23308.125 -16750.123   -177.967   -171.226    578.853  15635.878
       385     273.471  -6173.437  -6123.984 -18976.083 -17091.389 -23185.272 -16651.587    197.736    139.165    158.033  15637.814
       390     277.467  -6174.249  -6124.074 -19433.231 -17552.714 -24028.213 -16718.766    684.070    236.653    147.656  15639.750
       395     279.830  -6174.749  -6124.146 -19780.361 -17301.139 -24780.152 -17259.792    551.498   -154.565    281.783  15641.686
       400     282.491  -6175.317  -6124.232 -20132.197 -17685.432 -25192.901 -17518.258    402.300    277.857    120.433  15643.622
       405     277.288  -6174.452  -6124.308 -20156.274 -18012.188 -24813.601 -17643.032     65.196    173.845    245.077  15645.559
       410     272.294  -6173.619  -6124.379 -20142.089 -17666.698 -25102.301 -17657.269    340.786   -167.385    493.517  15647.495
       415     275.501  -6174.280  -6124.459 -20588.016 -18007.811 -25814.174 -17942.063    184.755    649.072    541.234  15649.431
       420     275.554  -6174.366  -6124.537 -20777.977 -18551.657 -25612.370 -18169.904   -262.547    534.181    609.597  15651.367
       425     271.525  -6173.711  -6124.610 -20733.876 -18126.370 -25858.526 -18216.731    -28.309    100.253    651.876  15653.303
       430     271.894  -6173.844  -6124.676 -21097.761 -18314.722 -26360.955 -18617.605   -428.861    198.476    432.581  15655.239
       435     280.169  -6175.440  -6124.776 -21790.753 -19261.391 -27101.579 -19009.288   -622.744    354.098    435.785  15657.175
       440     270.966  -6173.834  -6124.834 -21495.960 -19020.904 -26901.533 -18565.444   -242.957   -119.410    538.332  15659.111
       445     270.260  -6173.783  -6124.910 -21755.072 -19318.630 -27152.238 -18794.347     17.283    -16.736    289.739  15661.047
       450     274.840  -6174.693  -6124.992 -22205.355 -19163.902 -27869.926 -19582.237   -137.647    413.777     59.531  15662.983
       455     277.481  -6175.244  -6125.066 -22577.740 -19265.360 -28130.419 -20337.442   -394.723   -155.586    124.731  15664.920
       460     274.218  -6174.735  -6125.147 -22713.500 -19832.863 -28347.226 -19960.410   -163.204    -65.606    -72.306  15666.856
       465     266.034  -6173.309  -6125.200 -22410.596 -19547.867 -28199.347 -19484.572   -219.215     -4.960     86.415  15668.792
       470     277.036  -6175.397  -6125.300 -23330.204 -20316.229 -28879.040 -20795.344    220.183    -78.974    362.086  15670.728
       475     267.688  -6173.767  -6125.360 -23114.980 -19592.428 -28974.503 -20778.010    191.868    134.698     28.007  15672.664
       480     264.539  -6173.263  -6125.425 -23144.462 -19981.668 -29105.863 -20345.856   -155.639    -40.835     19.701  15674.600
       485     272.739  -6174.832  -6125.512 -23835.286 -20947.721 -29932.117 -20626.020    -36.602     59.564    610.629  15676.536
       490     273.003  -6174.945  -6125.577 -24044.649 -21503.924 -29993.909 -20636.115     81.156    438.929    269.092  15678.472
       495     270.847  -6174.636  -6125.658 -24239.901 -21741.507 -29977.104 -21001.093    114.727    490.376    187.419  15680.408
       500     264.697  -6173.582  -6125.715 -24194.878 -20884.679 -30203.382 -21496.573    215.585     95.835    319.510  15682.344
       505     272.823  -6175.138  -6125.802 -24852.578 -21198.867 -31465.789 -21893.077     65.440    401.780     76.233  15684.280
       510     269.998  -6174.692  -6125.867 -24895.178 -21696.398 -31263.394 -21725.743   -542.930    180.905    185.364  15686.217
       515     263.468  -6173.581  -6125.937 -24810.357 -21562.497 -30890.418 -21978.156     35.683   -200.602    206.047  15688.153
       520     259.549  -6172.929  -6125.994 -24801.086 -21542.570 -30964.231 -21896.457    206.843     -5.516     97.039  15690.089
       525     274.453  -6175.721  -6126.090 -25900.600 -22637.854 -32303.075 -22760.872      6.869    -98.450    354.259  15692.025
       530     275.966  -6176.065  -6126.160 -26220.965 -22954.938 -32494.648 -23213.309    456.199   -200.236    223.685  15693.961
       535     264.967  -6174.137  -6126.222 -25896.552 -22373.750 -32276.289 -23039.618    557.449    -14.234    254.976  15695.897
       540     260.934  -6173.478  -6126.292 -25941.379 -22552.230 -32921.666 -22350.240     -9.807    376.302    286.961  15697.833
       545     266.561  -6174.563  -6126.359 -26447.598 -22995.856 -33363.001 -22983.936   -175.251     -2.255    756.043  15699.769
       550     274.123  -6176.021  -6126.450 -27107.710 -23582.577 -33620.922 -24119.630     31.841     94.076    488.989  15701.705
       555     257.683  -6173.089  -6126.490 -26435.807 -22961.330 -33153.416 -23192.676   -304.858    -39.671    216.207  15703.641
       560     261.506  -6173.857  -6126.568 -26900.111 -23302.533 -33971.506 -23426.295   -523.892    297.897    333.528  15705.577
       565     272.060  -6175.851  -6126.653 -27731.575 -24127.549 -34938.536 -24128.639    -10.780   -442.567    105.244  15707.514
       570     260.243  -6173.759  -6126.698 -27315.458 -23547.753 -34376.980 -24021.640     96.986    -49.807     99.135  15709.450
       575     260.209  -6173.827  -6126.772 -27555.610 -24032.601 -34405.515 -24228.714   -155.973    -83.890    243.000  15711.386
       580     266.228  -6174.986  -6126.842 -28115.758 -24739.755 -34895.164 -24712.356    -39.729   -289.317     53.377  15713.322
       585     266.360  -6175.083  -6126.916 -28385.344 -25114.999 -35333.987 -24707.046    285.081    170.116   -542.753  15715.258
       590     259.555  -6173.904  -6126.967 -28240.423 -24882.010 -35485.295 -24353.965    -65.962    -92.441   -420.186  15717.194
       595     265.565  -6175.080  -6127.057 -28832.063 -25105.376 -36015.528 -25375.286   -151.395   -138.517   -513.171  15719.130
       600     257.447  -6173.656  -6127.101 -28633.944 -24896.391 -36189.741 -24815.699    129.894     47.741   -163.347  15721.066
       605     259.491  -6174.103  -6127.178 -28989.727 -25358.545 -36475.717 -25134.920   -151.490    319.362    231.064  15723.002
       610     260.835  -6174.408  -6127.240 -29277.461 -25382.823 -36403.582 -26045.978   -136.581    132.626     23.283  15724.938
       615     260.858  -6174.480  -6127.308 -29487.926 -25514.895 -37031.379 -25917.503    -38.477   -157.160     84.528  15726.874
       620     262.762  -6174.891  -6127.375 -29840.163 -26100.919 -37827.542 -25592.029   -242.351    429.129    146.164  15728.811
       625     262.063  -6174.825  -6127.435 -30013.266 -26249.425 -37481.290 -26309.082   -172.264    266.800     40.017  15730.747
       630     261.069  -6174.707  -6127.497 -30198.773 -26208.102 -37683.542 -26704.673     12.758     50.826    106.171  15732.683
       635     261.678  -6174.900  -6127.579 -30536.350 -26761.413 -38500.038 -26347.599     24.274    251.973    150.775  15734.619
       640     251.139  -6173.028  -6127.613 -30158.761 -26558.832 -38264.006 -25653.445    -21.304    396.299   -292.592  15736.555
       645     264.098  -6175.462  -6127.704 -31166.230 -27516.596 -39252.673 -26729.421     26.879    359.858   -173.108  15738.491
       650     257.253  -6174.277  -6127.756 -30955.435 -26975.439 -39040.515 -26850.352    302.281    -10.356    -28.659  15740.427
       655     251.484  -6173.278  -6127.801 -30877.486 -27075.593 -38675.825 -26881.039    154.378     54.818     14.852  15742.363
       660     264.674  -6175.759  -6127.897 -31836.556 -28024.042 -39690.890 -27794.736    625.878    295.992    -52.938  15744.299
       665     254.992  -6174.040  -6127.929 -31537.961 -27413.156 -39893.650 -27307.076   1154.130     41.191   -340.528  15746.235
       670     257.087  -6174.495  -6128.005 -31965.996 -27947.437 -40433.670 -27516.880    303.113     87.762    147.172  15748.171
       675     253.398  -6173.875  -6128.052 -31929.981 -27800.468 -40163.650 -27825.824      5.622    146.708     -9.357  15750.108
       680     259.446  -6175.045  -6128.128 -32578.152 -28163.077 -41140.320 -28431.059     59.134   -244.784     57.294  15752.044
       685     254.149  -6174.131  -6128.172 -32424.903 -28208.491 -40863.400 -28202.819    162.191    523.394    396.897  15753.980
       690     259.744  -6175.219  -6128.249 -33077.531 -29059.029 -41449.971 -28723.592    284.922    416.654    -50.010  15755.916
       695     254.106  -6174.251  -6128.300 -32941.513 -28988.261 -41762.723 -28073.555     -1.037     65.428    183.531  15757.852
       700     248.816  -6173.343  -6128.349 -32861.439 -28920.600 -41717.230 -27946.487    189.273    452.361    147.801  15759.788
       705     258.544  -6175.183  -6128.429 -33764.184 -29631.908 -42376.133 -29284.511    182.647    150.180   -147.889  15761.724
       710     252.504  -6174.131  -6128.470 -33578.380 -29044.036 -42354.521 -29336.583   -139.655   -199.897   -239.572  15763.660
       715     253.511  -6174.380  -6128.536 -33938.038 -29732.807 -42905.421 -29175.887   -134.342    255.950    -24.033  15765.596
       720     251.841  -6174.124  -6128.582 -33996.849 -30178.663 -42884.623 -28927.261   -509.576    -94.693   -128.636  15767.532
       725     256.865  -6175.110  -6128.660 -34561.921 -30168.577 -43518.943 -29998.243   -397.540   -484.767    139.265  15769.468
       730     245.004  -6172.990  -6128.684 -34057.500 -29307.847 -42702.843 -30161.810   -458.895    129.554    241.542  15771.405
       735     253.511  -6174.608  -6128.764 -34856.638 -30337.904 -43659.716 -30572.294   -274.536    271.962    -42.134  15773.341
       740     254.347  -6174.814  -6128.819 -35181.525 -30918.271 -44310.801 -30315.503    228.592   -122.798   -142.187  15775.277
       745     246.679  -6173.466  -6128.858 -34910.449 -30388.367 -44066.270 -30276.709    419.518    116.489    337.490  15777.213
       750     254.139  -6174.889  -6128.932 -35644.306 -30998.782 -44818.660 -31115.476    482.836    201.033   -150.189  15779.149
       755     250.499  -6174.269  -6128.970 -35575.412 -31111.415 -44726.535 -30888.285     -6.491   -116.511   -181.368  15781.085
       760     255.232  -6175.202  -6129.048 -36172.008 -31619.746 -45821.786 -31074.491    217.709      4.098    148.369  15783.021
       765     243.888  -6173.177  -6129.074 -35747.260 -31260.663 -45398.696 -30582.422    575.058    166.394   -508.443  15784.957
       770     246.391  -6173.697  -6129.141 -36138.301 -31485.205 -45826.134 -31103.562    128.678     98.252    -65.780  15786.893
       775     251.869  -6174.734  -6129.187 -36629.733 -31848.151 -46289.169 -31751.878   -386.729    285.586    125.650  15788.829
       780     253.718  -6175.131  -6129.250 -36939.477 -32345.427 -46383.782 -32089.222    389.033    535.649   -555.385  15790.765
       785     248.064  -6174.154  -6129.295 -36951.371 -32066.347 -46555.372 -32232.395     24.385    108.688    202.025  15792.702
       790     246.050  -6173.840  -6129.346 -37030.214 -31879.498 -46857.410 -32353.733   -192.622   -168.009    352.990  15794.638
       795     247.033  -6174.076  -6129.403 -37354.582 -32907.377 -46664.806 -32491.562    199.050     48.201   -165.843  15796.574
       800     244.890  -6173.730  -6129.445 -37420.588 -33055.198 -46727.589 -32478.977    178.268     21.571    264.203  15798.510
       805     245.683  -6173.928  -6129.500 -37696.897 -32686.938 -47625.142 -32778.610     40.397    314.079    113.703  15800.446
       810     247.376  -6174.286  -6129.551 -38022.155 -32815.058 -47867.746 -33383.661     74.180     77.151   -237.729  15802.382
       815     245.870  -6174.059  -6129.597 -38191.027 -33465.985 -47699.559 -33407.536     78.040   -177.987     -3.333  15804.318
       820     245.903  -6174.115  -6129.648 -38454.105 -33373.072 -48516.001 -33473.242      7.472    192.441    341.839  15806.254
       825     249.822  -6174.878  -6129.701 -38874.602 -33725.816 -49496.162 -33401.828     33.847    210.039     47.303  15808.190
       830     245.681  -6174.174  -6129.747 -38883.735 -33569.824 -49570.126 -33511.255    -94.892    406.080    -74.691  15810.126
       835     240.776  -6173.326  -6129.785 -38836.593 -33332.931 -49107.175 -34069.675   -100.354      9.322    163.979  15812.062
       840     245.140  -6174.175  -6129.845 -39325.045 -34035.634 -49585.038 -34354.464    -75.200    363.971    196.330  15813.999
       845     242.481  -6173.731  -6129.882 -39384.876 -34333.312 -50024.769 -33796.548    164.967    144.183     98.188  15815.935
       850     246.273  -6174.470  -6129.936 -39823.645 -34648.705 -50171.518 -34650.714    131.103    327.044    170.125  15817.871
       855     244.504  -6174.197  -6129.982 -39934.774 -34499.852 -50191.586 -35112.883   -128.891    359.568     16.522  15819.807
       860     238.836  -6173.201  -6130.012 -39843.958 -34486.229 -50146.379 -34899.266    208.647    343.478   -460.458  15821.743
       865     246.465  -6174.657  -6130.087 -40628.444 -35210.718 -51108.781 -35565.833     54.380     -0.479   -327.219  15823.679
       870     236.896  -6172.940  -6130.101 -40181.738 -34591.955 -50651.185 -35302.075    -78.735   -170.696     90.108  15825.615
       875     245.685  -6174.591  -6130.162 -40952.291 -35478.202 -51646.948 -35731.721    462.446    227.763   -176.125  15827.551
       880     243.716  -6174.283  -6130.211 -41116.399 -35531.759 -52118.172 -35699.268    148.221     54.770   -194.119  15829.487
       885     233.083  -6172.373  -6130.224 -40642.913 -35207.168 -51323.408 -35398.163   -347.383    -32.131     31.784  15831.423
       890     246.551  -6174.890  -6130.305 -41753.767 -36340.892 -52318.090 -36602.318     -0.095    287.539   -192.337  15833.359
       895     236.315  -6173.050  -6130.316 -41338.736 -36089.114 -52086.308 -35840.786    362.095     -2.215   -593.449  15835.296
       900     238.383  -6173.478  -6130.370 -41736.879 -36146.422 -52601.794 -36462.422    369.232    274.148   -285.628  15837.232
       905     241.290  -6174.047  -6130.414 -42077.824 -36421.106 -52871.755 -36940.612     -3.995    711.799    -31.828  15839.168
       910     240.497  -6173.942  -6130.452 -42236.171 -36653.327 -53308.731 -36746.454    192.435    321.754     17.767  15841.104
       915     239.537  -6173.814  -6130.497 -42471.720 -36804.797 -53589.834 -37020.529      0.369    476.634    -15.761  15843.040
       920     238.513  -6173.664  -6130.532 -42602.978 -36731.585 -54166.724 -36910.626     29.626    527.080    128.846  15844.976
       925     240.569  -6174.083  -6130.580 -43018.796 -37422.577 -54635.154 -36998.656    439.611     -0.006   -133.383  15846.912
       930     234.568  -6173.022  -6130.604 -42861.710 -37125.335 -54362.461 -37097.334    -42.925    140.392   -119.622  15848.848
       935     240.979  -6174.234  -6130.657 -43416.552 -37572.275 -54963.021 -37714.359   -317.278    139.271   -150.657  15850.784
       940     239.666  -6174.033  -6130.693 -43586.361 -37680.693 -55363.025 -37715.365    148.118   -313.969     28.374  15852.720
       945     232.145  -6172.703  -6130.723 -43443.402 -37513.001 -55170.488 -37646.716     58.094   -229.163    -48.234  15854.657
       950     233.416  -6172.976  -6130.766 -43769.195 -37942.062 -55261.392 -38104.131   -376.221     70.360   -274.412  15856.593
       955     235.713  -6173.428  -6130.803 -44076.216 -37514.030 -56136.901 -38577.717   -244.741    246.920    -17.480  15858.529
       960     238.295  -6173.931  -6130.839 -44456.980 -37872.508 -56739.745 -38758.686   -280.753   -494.071    158.938  15860.465
       965     234.723  -6173.321  -6130.875 -44462.151 -38485.181 -56425.090 -38476.183   -281.091   -172.281     67.816  15862.401
       970     230.810  -6172.634  -6130.895 -44446.326 -38516.345 -56475.740 -38346.894   -309.272     34.755    174.815  15864.337
       975     240.908  -6174.516  -6130.952 -45253.877 -39757.004 -57142.159 -38862.467   -231.897   -431.911   -125.800  15866.273
       980     238.031  -6174.026  -6130.981 -45300.668 -39551.812 -57268.476 -39081.715   -108.665   -416.610    -15.081  15868.209
       985     231.469  -6172.866  -6131.008 -45259.883 -38734.696 -57996.131 -39048.822   -192.480   -318.610    214.610  15870.145
       990     233.321  -6173.239  -6131.047 -45590.539 -39570.607 -58345.981 -38855.028    -10.409     75.883   -104.899  15872.081
       995     234.889  -6173.557  -6131.081 -45887.884 -40251.739 -58122.398 -39289.516    199.393    277.977   -369.622  15874.017
      1000     232.937  -6173.230  -6131.107 -46003.499 -39704.525 -58212.863 -40093.110    267.376    167.660    182.427  15875.954
      1005     234.047  -6173.472  -6131.148 -46254.882 -39750.410 -58638.700 -40375.536   -175.657   -145.304    169.258  15877.890
      1010     228.533  -6172.493  -6131.166 -46199.974 -40128.772 -58752.342 -39718.806   -294.593     33.238    -55.361  15879.826
      1015     229.381  -6172.686  -6131.206 -46489.459 -40419.985 -58994.882 -40053.509    -14.180    428.116    216.756  15881.762
      1020     230.608  -6172.931  -6131.229 -46772.047 -40259.042 -59378.735 -40678.364   -106.797    -83.488    195.659  15883.698
      1025     235.909  -6173.933  -6131.273 -47290.702 -40688.461 -60055.018 -41128.626   -260.107   -576.455    107.832  15885.634
      1030     228.183  -6172.552  -6131.289 -47102.788 -40841.902 -59990.221 -40476.240   -149.661   -435.876    310.753  15887.570
      1035     227.761  -6172.508  -6131.321 -47265.992 -40999.644 -60145.034 -40653.299    -41.675   -438.262    458.815  15889.506
      1040     232.951  -6173.477  -6131.352 -47759.533 -41250.764 -60796.299 -41231.536   -222.380   -373.219    307.476  15891.442
      1045     233.104  -6173.543  -6131.390 -48034.604 -41417.166 -61205.557 -41481.089    -42.226    -56.905     60.900  15893.378
      1050     222.771  -6171.677  -6131.392 -47691.497 -40969.817 -60771.739 -41332.934    376.525    -77.393    174.321  15895.314
      1055     231.821  -6173.367  -6131.446 -48449.363 -42223.093 -61441.927 -41683.070    299.684     93.966     72.856  15897.251
      1060     230.357  -6173.109  -6131.453 -48492.099 -42385.848 -61366.243 -41724.207   -178.527    -60.753    197.827  15899.187
      1065     235.487  -6174.081  -6131.497 -49009.109 -42633.251 -61937.829 -42456.248     13.624     77.374     55.390  15901.123
      1070     227.608  -6172.683  -6131.524 -48887.668 -42050.070 -62074.489 -42538.444    712.476    227.820    -22.424  15903.059
      1075     215.396  -6170.477  -6131.526 -48411.938 -41694.787 -61750.931 -41790.096    113.357   -110.356   -293.637  15904.995
      1080     227.196  -6172.654  -6131.569 -49337.300 -42835.553 -62514.469 -42661.878      9.411     64.229   -222.942  15906.931
      1085     231.131  -6173.389  -6131.593 -49678.297 -42938.878 -62825.364 -43270.649    133.034   -342.441   -108.060  15908.867
      1090     230.973  -6173.384  -6131.616 -49885.673 -42948.643 -63191.375 -43517.001   -157.350   -155.215   -297.329  15910.803
      1095     227.220  -6172.732  -6131.643 -49897.921 -42992.985 -63013.288 -43687.489   -119.775    298.744   -269.451  15912.739
      1100     223.907  -6172.146  -6131.656 -49934.845 -43151.439 -63236.968 -43416.127   -309.544    -60.677    -50.692  15914.675
      1105     229.633  -6173.226  -6131.701 -50538.383 -43646.378 -63960.589 -44008.182   -432.309     69.299   -169.329  15916.611
      1110     219.299  -6171.349  -6131.692 -50124.386 -43116.958 -63629.635 -43626.564   -165.965    126.645   -173.697  15918.548
      1115     230.954  -6173.513  -6131.748 -51075.313 -43990.269 -64871.476 -44364.194    -66.174    -96.947   -112.964  15920.484
      1120     223.546  -6172.175  -6131.750 -50832.140 -43784.535 -64368.975 -44342.908   -420.580   -116.431    -25.710  15922.420
      1125     219.695  -6171.497  -6131.768 -50848.775 -43732.423 -64603.061 -44210.840    -31.499    149.065   -173.460  15924.356
      1130     226.063  -6172.680  -6131.800 -51431.832 -44189.433 -65321.424 -44784.638     90.609     11.055    -67.112  15926.292
      1135     224.955  -6172.489  -6131.809 -51536.945 -44393.759 -65422.768 -44794.308   -229.057   -100.700    222.602  15928.228
      1140     227.789  -6173.040  -6131.847 -51985.825 -44475.924 -66062.790 -45418.760    -88.322    288.318   -251.518  15930.164
      1145     218.110  -6171.284  -6131.842 -51600.203 -44104.393 -65471.989 -45224.228   -385.394    129.218    169.623  15932.100
      1150     223.223  -6172.249  -6131.882 -52171.397 -45093.110 -66016.130 -45404.950   -422.817   -215.059    386.029  15934.036
      1155     219.729  -6171.618  -6131.883 -52153.498 -45127.552 -66352.607 -44980.335   -109.171      6.559    -60.653  15935.972
      1160     225.313  -6172.655  -6131.911 -52658.081 -45109.303 -67267.819 -45597.120   -223.483    217.363    135.799  15937.908
      1165     225.597  -6172.730  -6131.934 -53014.555 -45543.266 -67648.740 -45851.658   -242.683   -138.608    201.769  15939.845
      1170     214.975  -6170.806  -6131.931 -52611.270 -45537.664 -67132.592 -45163.553     83.017     19.817    158.108  15941.781
      1175     222.058  -6172.114  -6131.959 -53229.883 -45812.656 -67580.939 -46296.053     70.666    -36.565    -22.964  15943.717
      1180     223.265  -6172.350  -6131.976 -53438.624 -45622.180 -68190.885 -46502.808    -27.488    126.900   -179.532  15945.653
      1185     218.812  -6171.551  -6131.982 -53425.540 -45599.483 -68819.306 -45857.832    -52.051    128.099    519.399  15947.589
      1190     221.646  -6172.090  -6132.009 -53892.368 -46403.001 -68948.161 -46325.940   -229.725    147.187    512.468  15949.525
      1195     217.288  -6171.303  -6132.010 -53785.232 -46380.364 -68148.947 -46826.384   -502.506    337.803     11.388  15951.461
      1200     219.493  -6171.730  -6132.038 -54219.461 -46643.249 -68685.494 -47329.641   -299.961    226.736    208.654  15953.397
      1205     213.429  -6170.626  -6132.030 -54018.323 -46175.169 -68944.093 -46935.706   -344.806    408.060    162.828  15955.333
      1210     222.156  -6172.233  -6132.059 -54732.887 -47032.809 -69672.754 -47493.099    -82.663    211.844   -247.360  15957.269
      1215     224.738  -6172.710  -6132.069 -55101.370 -47746.351 -70014.810 -47542.950    242.163    544.913    228.292  15959.205
      1220     219.248  -6171.728  -6132.080 -54927.105 -47507.519 -69708.724 -47565.071    267.423    229.039    337.749  15961.142
      1225     217.327  -6171.394  -6132.093 -55205.826 -47344.629 -70308.123 -47964.725    222.305    103.940    172.431  15963.078
      1230     214.326  -6170.858  -6132.101 -55198.022 -47242.233 -70501.206 -47850.627    105.281    233.138    215.407  15965.014
      1235     215.421  -6171.064  -6132.109 -55444.700 -47572.105 -71009.572 -47752.423     19.725    -82.812    239.506  15966.950
      1240     219.462  -6171.814  -6132.127 -55893.692 -48036.651 -71607.491 -48036.933    -74.140    157.933    211.862  15968.886
      1245     216.383  -6171.255  -6132.125 -55926.288 -48149.744 -71311.788 -48317.333    -31.369    -14.522    108.699  15970.822
      1250     216.340  -6171.267  -6132.145 -56151.675 -48194.299 -71673.979 -48586.747    177.391   -146.855    198.351  15972.758
      1255     212.578  -6170.581  -6132.139 -56137.738 -48022.224 -71842.889 -48548.101   -137.336    147.989   -153.896  15974.694
      1260     217.903  -6171.568  -6132.164 -56667.995 -48434.014 -72525.515 -49044.458   -222.394    -59.565   -458.878  15976.630
      1265     214.089  -6170.876  -6132.161 -56678.021 -48670.699 -72215.396 -49147.969    231.793     67.430   -120.563  15978.566
      1270     215.602  -6171.159  -6132.170 -57015.632 -49330.222 -72295.372 -49421.302     87.040    101.203     18.748  15980.502
      1275     216.375  -6171.310  -6132.182 -57210.499 -49334.407 -72884.969 -49412.121   -172.138    -84.429   -179.218  15982.439
      1280     212.345  -6170.577  -6132.178 -57236.509 -49152.601 -73148.659 -49408.266   -182.030    589.024     99.376  15984.375
      1285     215.722  -6171.205  -6132.195 -57643.762 -49799.074 -73368.511 -49763.703    -81.852    124.270     38.109  15986.311
      1290     214.575  -6170.993  -6132.190 -57768.764 -50025.585 -73287.581 -49993.125   -224.931    -44.610   -134.775  15988.247
      1295     216.400  -6171.342  -6132.210 -58122.707 -50171.356 -73911.766 -50284.998   -264.004    300.332    153.876  15990.183
      1300     209.838  -6170.145  -6132.199 -57955.755 -50120.949 -73857.673 -49888.643    -97.053    -62.102    269.038  15992.119
      1305     212.350  -6170.611  -6132.211 -58320.488 -50265.052 -74278.606 -50417.807    151.557   -407.380     34.414  15994.055
      1310     213.305  -6170.786  -6132.213 -58559.619 -50423.036 -74770.639 -50485.182     81.216   -495.482    -53.951  15995.991
      1315     212.876  -6170.713  -6132.218 -58753.410 -50880.960 -74828.080 -50551.189   -336.662   -276.652    210.931  15997.927
      1320     208.931  -6169.999  -6132.217 -58769.417 -50809.492 -74655.614 -50843.145   -441.896   -275.302     84.399  15999.863
      1325     209.368  -6170.075  -6132.214 -58992.541 -50802.616 -75181.987 -50993.019   -232.493   -575.334   -345.905  16001.799
      1330     216.690  -6171.411  -6132.226 -59615.302 -51394.282 -75918.911 -51532.714      6.756   -167.191    -14.662  16003.736
      1335     213.251  -6170.789  -6132.226 -59630.446 -51500.275 -75672.758 -51718.306    -77.802    144.575   -229.898  16005.672
      1340     204.682  -6169.226  -6132.212 -59356.260 -51285.897 -75257.596 -51525.287   -375.450    264.817   -443.034  16007.608
      1345     211.613  -6170.499  -6132.232 -60011.001 -51889.808 -76150.262 -51992.933   -147.958     71.222     54.842  16009.544
      1350     208.759  -6169.971  -6132.220 -60055.747 -51758.554 -76518.456 -51890.231   -136.994    129.963    116.370  16011.480
      1355     206.706  -6169.597  -6132.218 -60108.691 -51814.483 -76681.885 -51829.704   -321.579    340.992   -192.320  16013.416
      1360     210.714  -6170.324  -6132.219 -60595.033 -51888.403 -77270.502 -52626.195    248.953    365.530     46.759  16015.352
      1365     211.851  -6170.533  -6132.223 -60862.268 -52287.918 -77496.246 -52802.639    260.217    356.034    436.892  16017.288
      1370     208.077  -6169.837  -6132.209 -60805.282 -52550.928 -77522.929 -52341.989    -69.482    261.110    384.493  16019.224
      1375     213.228  -6170.781  -6132.222 -61345.436 -52981.661 -78239.957 -52814.691      1.290    224.325    127.652  16021.160
      1380     208.192  -6169.861  -6132.212 -61315.884 -52965.478 -78254.019 -52728.155    -35.808    156.782    -54.391  16023.097
      1385     201.500  -6168.640  -6132.201 -61133.069 -52421.771 -78043.749 -52933.687    -66.403    -94.850    102.813  16025.033
      1390     206.026  -6169.459  -6132.203 -61603.519 -52832.526 -78507.254 -53470.777      5.417   -205.096    -70.553  16026.969
      1395     210.044  -6170.184  -6132.200 -61993.206 -53269.819 -79135.893 -53573.906   -214.965   -152.514   -184.958  16028.905
      1400     208.867  -6169.965  -6132.195 -62128.570 -53529.514 -79282.886 -53573.311   -140.639     29.316     50.206  16030.841
      1405     205.888  -6169.418  -6132.186 -62179.194 -53473.306 -79174.389 -53889.887   -328.898    -62.438    -33.678  16032.777
      1410     205.347  -6169.319  -6132.185 -62371.712 -53752.155 -79161.761 -54201.219   -502.495   -213.960    157.572  16034.713
      1415     203.812  -6169.024  -6132.168 -62521.768 -53950.527 -79550.286 -54064.490   -266.804     99.350    539.008  16036.649
      1420     208.816  -6169.938  -6132.177 -62989.991 -54092.789 -80369.753 -54507.430   -302.516     46.712    334.268  16038.585
      1425     205.218  -6169.265  -6132.154 -63023.259 -54075.182 -80483.765 -54510.830   -489.392   -262.831    260.174  16040.521
      1430     207.200  -6169.630  -6132.161 -63381.283 -54458.914 -81130.581 -54554.354   -145.803   -182.885    246.898  16042.457
      1435     201.265  -6168.530  -6132.134 -63225.044 -54374.301 -80952.388 -54348.441    112.842   -110.698    113.223  16044.394
      1440     205.470  -6169.297  -6132.141 -63646.909 -54674.934 -81125.248 -55140.546    162.493   -535.931    225.742  16046.330
      1445     203.287  -6168.882  -6132.121 -63755.702 -54908.536 -81231.160 -55127.410     72.614   -355.682     10.548  16048.266
      1450     204.099  -6169.028  -6132.119 -64016.426 -55478.238 -81653.147 -54917.894   -114.103   -345.791    135.425  16050.202
      1455     202.915  -6168.798  -6132.104 -64120.806 -55273.807 -81773.201 -55315.409   -231.514   -255.990    243.440  16052.138
      1460     203.963  -6168.977  -6132.094 -64419.492 -55265.338 -82077.815 -55915.324   -269.778   -287.578    256.656  16054.074
      1465     204.972  -6169.156  -6132.090 -64678.188 -55678.611 -82457.505 -55898.448   -177.782   -267.385    345.896  16056.010
      1470     200.566  -6168.336  -6132.067 -64633.063 -55457.905 -82752.992 -55688.291   -183.861   -201.112     80.020  16057.946
      1475     202.234  -6168.637  -6132.067 -65008.498 -55708.727 -83309.603 -56007.163   -447.412    -30.067     75.428  16059.882
      1480     197.089  -6167.678  -6132.037 -64853.737 -55660.446 -82763.546 -56137.220   -287.606   -109.084    437.899  16061.818
      1485     204.811  -6169.073  -6132.036 -65516.461 -56301.768 -83525.537 -56722.077   -137.772     87.003    441.013  16063.754
      1490     208.439  -6169.722  -6132.029 -65895.799 -56939.603 -84324.931 -56422.862    -75.949   -194.958    348.931  16065.691
      1495     199.437  -6168.071  -6132.006 -65627.523 -56431.666 -83877.780 -56573.123    -34.816   -330.265    392.477  16067.627
      1500     195.974  -6167.425  -6131.986 -65671.251 -56425.402 -83700.970 -56887.382    -72.223    -36.691    212.739  16069.563
      1505     202.605  -6168.617  -6131.979 -66144.085 -56976.255 -84295.851 -57160.149   -141.829    -92.289    114.276  16071.499
      1510     204.188  -6168.892  -6131.968 -66496.817 -57209.815 -84669.024 -57611.612    113.401   -269.825    204.507  16073.435
      1515     194.647  -6167.139  -6131.940 -66195.684 -56869.256 -84340.638 -57377.158    238.849    -32.982     76.106  16075.371
      1520     195.835  -6167.337  -6131.923 -66496.702 -57082.481 -84745.901 -57661.724    -71.142    283.536    308.070  16077.307
      1525     205.518  -6169.082  -6131.917 -67226.400 -57772.582 -85587.245 -58319.373   -234.567    272.590    119.791  16079.243
      1530     204.598  -6168.899  -6131.900 -67305.169 -58017.809 -85749.151 -58148.547     -8.779    -14.253     -1.668  16081.179
      1535     195.956  -6167.312  -6131.876 -67117.820 -57884.243 -85712.341 -57756.877    -35.079     48.042    282.502  16083.115
      1540     193.301  -6166.810  -6131.854 -67155.462 -57519.403 -85811.517 -58135.466    -31.375    305.292     62.285  16085.051
      1545     199.345  -6167.889  -6131.840 -67679.402 -57918.078 -86309.317 -58810.811    -48.367    276.881    173.608  16086.988
      1550     199.885  -6167.971  -6131.825 -67899.321 -58443.579 -86411.236 -58843.148    -81.423    258.579    231.395  16088.924
      1555     194.766  -6167.014  -6131.794 -67822.063 -58557.058 -86389.187 -58519.944      9.210    460.028    145.588  16090.860
      1560     198.964  -6167.769  -6131.790 -68331.638 -58890.758 -87154.060 -58950.097     61.970    449.038    446.556  16092.796
      1565     196.728  -6167.332  -6131.757 -68347.745 -58566.046 -87421.203 -59055.985   -158.051    513.672    295.989  16094.732
      1570     198.611  -6167.662  -6131.747 -68666.303 -59003.953 -87663.166 -59331.792   -339.605    462.958     14.549  16096.668
      1575     195.892  -6167.140  -6131.716 -68676.465 -59143.108 -87576.445 -59309.841   -257.121    -33.384    -36.585  16098.604
      1580     196.596  -6167.255  -6131.704 -68976.859 -59331.864 -88098.464 -59500.249   -373.438     60.070   -346.782  16100.540
      1585     191.771  -6166.351  -6131.673 -68911.251 -58966.927 -88316.524 -59450.303   -359.665     23.032   -280.743  16102.476
      1590     194.892  -6166.890  -6131.647 -69240.313 -59390.399 -88657.180 -59673.361   -365.646   -420.998   -174.060  16104.412
      1595     203.193  -6168.387  -6131.643 -69957.154 -60386.302 -89015.862 -60469.297   -546.550   -479.787   -342.123  16106.348
      1600     192.776  -6166.461  -6131.600 -69476.909 -59687.086 -88535.016 -60208.625   -349.464   -287.938   -537.721  16108.285
      1605     193.015  -6166.486  -6131.582 -69784.825 -59548.197 -89397.559 -60408.720   -319.178   -311.712   -109.455  16110.221
      1610     195.104  -6166.843  -6131.561 -70061.862 -59669.099 -89836.327 -60680.161   -522.245   -211.049     52.841  16112.157
      1615     192.377  -6166.315  -6131.527 -70076.556 -60196.193 -89588.901 -60444.576   -418.686   -216.649   -293.560  16114.093
      1620     194.553  -6166.693  -6131.511 -70481.929 -61095.896 -89824.292 -60525.600   -230.527     -9.392    -66.039  16116.029
      1625     191.927  -6166.182  -6131.474 -70445.650 -60482.272 -90206.709 -60647.969   -219.408    321.248     69.046  16117.965
      1630     195.682  -6166.844  -6131.457 -70962.256 -60539.722 -91150.418 -61196.628   -353.441    102.665   -176.173  16119.901
      1635     194.557  -6166.608  -6131.425 -71030.215 -60912.442 -91018.355 -61159.849   -309.847    155.607    -71.805  16121.837
      1640     195.075  -6166.683  -6131.407 -71297.677 -61564.176 -91082.311 -61246.544   -339.546    252.742    392.996  16123.773
      1645     186.806  -6165.146  -6131.365 -71042.350 -60929.514 -91061.137 -61136.398   -350.348    -77.220    243.020  16125.709
      1650     188.854  -6165.486  -6131.335 -71310.533 -60977.933 -91493.678 -61459.986   -406.531     34.442     12.319  16127.645
      1655     199.193  -6167.349  -6131.328 -72136.556 -62028.326 -92194.672 -62186.669   -382.610    -47.927    553.206  16129.582
      1660     189.053  -6165.460  -6131.273 -71682.469 -61341.879 -91699.774 -62005.754     78.149   -543.730    367.026  16131.518
      1665     191.494  -6165.891  -6131.263 -72126.802 -61885.627 -92036.818 -62457.960    171.786   -151.258    -21.196  16133.454
      1670     189.518  -6165.487  -6131.216 -72175.668 -62080.757 -92201.456 -62244.790   -251.248    -37.912    -66.318  16135.390
      1675     194.639  -6166.401  -6131.203 -72653.763 -62457.991 -92736.427 -62766.871    -55.484   -435.704     -5.680  16137.326
      1680     188.769  -6165.296  -6131.160 -72529.762 -62161.964 -92925.613 -62501.708    173.887    -73.580    206.105  16139.262
      1685     188.519  -6165.216  -6131.125 -72651.665 -62301.252 -93188.700 -62465.042   -135.228    279.777     39.017  16141.198
      1690     195.984  -6166.551  -6131.111 -73401.082 -63038.874 -93813.718 -63350.654   -170.322   -290.448    -97.968  16143.134
      1695     185.307  -6164.570  -6131.060 -72930.855 -62340.685 -93312.651 -63139.230     56.209   -157.298    142.049  16145.070
      1700     185.322  -6164.541  -6131.029 -73091.451 -62635.099 -93643.720 -62995.535    -68.879    386.863    206.164  16147.006
      1705     192.477  -6165.813  -6131.006 -73718.789 -63172.600 -94480.166 -63503.601    -52.065    124.066    204.303  16148.942
      1710     189.111  -6165.158  -6130.960 -73683.634 -63151.667 -94358.195 -63541.040     48.622    -98.406    -25.740  16150.879
      1715     192.200  -6165.696  -6130.940 -74103.820 -63711.167 -94574.314 -64025.980   -111.293    155.056   -198.310  16152.815
      1720     186.660  -6164.650  -6130.895 -73978.855 -63520.640 -94562.892 -63853.033    -91.738     18.181   -317.818  16154.751
      1725     184.968  -6164.310  -6130.862 -74087.286 -63628.733 -94774.419 -63858.706     28.207   -105.881   -326.373  16156.687
      1730     188.726  -6164.955  -6130.827 -74472.545 -64119.473 -95010.192 -64287.970     23.633   -198.777   -504.601  16158.623
      1735     189.179  -6165.005  -6130.795 -74651.469 -64262.077 -95331.329 -64361.001     36.875   -217.474   -197.001  16160.559
      1740     184.680  -6164.145  -6130.749 -74645.613 -63955.026 -95730.268 -64251.546   -233.209     62.671   -127.331  16162.495
      1745     188.745  -6164.852  -6130.721 -75091.064 -64270.943 -96149.858 -64852.390     43.892     20.853    -81.764  16164.431
      1750     188.885  -6164.841  -6130.684 -75272.157 -64553.913 -96310.491 -64952.067    207.916    -50.470    148.857  16166.367
      1755     185.119  -6164.119  -6130.644 -75297.017 -64763.405 -96463.493 -64664.155    -72.004    171.428    110.923  16168.303
      1760     182.973  -6163.689  -6130.601 -75364.829 -64783.638 -96606.303 -64704.546     81.466    255.422     51.956  16170.239
      1765     187.153  -6164.408  -6130.564 -75743.375 -64805.662 -97344.081 -65080.382   -161.669    256.143     46.240  16172.176
      1770     191.054  -6165.082  -6130.533 -76171.834 -65177.057 -97956.336 -65382.108   -243.739     94.657    -75.258  16174.112
      1775     185.353  -6164.005  -6130.487 -76058.173 -65158.414 -97579.304 -65436.801     77.326     40.700   -306.297  16176.048
      1780     179.718  -6162.943  -6130.444 -75937.199 -65205.193 -97390.658 -65215.746   -180.356    111.506    134.103  16177.984
      1785     181.319  -6163.189  -6130.400 -76260.245 -65210.345 -97886.213 -65684.176   -256.068   -155.864     28.701  16179.920
      1790     188.125  -6164.390  -6130.370 -76798.329 -65644.517 -98521.264 -66229.205   -447.121   -275.232   -353.908  16181.856
      1795     185.849  -6163.926  -6130.318 -76835.341 -65949.494 -98434.284 -66122.244   -685.869   -358.809   -262.418  16183.792
      1800     186.523  -6164.014  -6130.285 -77081.731 -66157.001 -98751.557 -66336.633   -113.477    -64.884    159.562  16185.728
      1805     183.725  -6163.459  -6130.235 -77136.375 -66053.112 -99100.745 -66255.268     80.674   -226.476    103.522  16187.664
      1810     185.228  -6163.694  -6130.198 -77421.420 -66556.661 -99173.983 -66533.618   -165.313   -105.081    266.883  16189.600
      1815     181.963  -6163.060  -6130.154 -77427.643 -66514.784 -99198.161 -66569.983   -211.261    216.039    299.163  16191.536
      1820     177.641  -6162.223  -6130.099 -77407.362 -66135.060 -99597.381 -66489.644   -413.544    477.265    293.459  16193.473
      1825     183.476  -6163.245  -6130.066 -77916.124 -66606.817 -100147.237 -66994.319   -160.412    439.462    496.605  16195.409
      1830     183.410  -6163.182  -6130.015 -78072.848 -66860.509 -100091.677 -67266.357    -12.242    111.304    420.546  16197.345
      1835     182.984  -6163.065  -6129.975 -78270.341 -67078.870 -100474.093 -67258.061   -531.852    299.404    261.742  16199.281
      1840     180.170  -6162.500  -6129.919 -78253.214 -66883.353 -100705.578 -67170.712   -692.844    240.822    385.160  16201.217
      1845     185.011  -6163.343  -6129.887 -78759.923 -67404.416 -101026.670 -67848.683   -522.880   -225.568    221.733  16203.153
      1850     181.598  -6162.669  -6129.830 -78783.934 -67518.779 -101023.773 -67809.251   -425.243    150.999     -4.939  16205.089
      1855     180.637  -6162.453  -6129.787 -78898.145 -67709.842 -101332.785 -67651.808   -182.549     39.193     68.911  16207.025
      1860     180.454  -6162.368  -6129.736 -79064.158 -67987.588 -101492.817 -67712.068   -303.120   -354.091     27.314  16208.961
      1865     182.433  -6162.684  -6129.693 -79365.918 -68149.831 -101786.093 -68161.831   -409.145     14.286    242.513  16210.897
      1870     180.047  -6162.200  -6129.642 -79454.192 -67967.068 -102303.375 -68092.133   -104.370    -61.472    303.948  16212.834
      1875     179.372  -6162.028  -6129.592 -79600.450 -68272.215 -102329.352 -68199.783    139.145    281.753    -20.589  16214.770
      1880     180.268  -6162.147  -6129.548 -79845.040 -68479.066 -102230.318 -68825.735     27.731    134.786   -138.063  16216.706
      1885     176.303  -6161.371  -6129.490 -79834.789 -68514.515 -102299.402 -68690.451    132.648   -317.157   -238.042  16218.642
      1890     179.323  -6161.873  -6129.445 -80191.636 -68996.772 -102807.574 -68770.562    243.416    246.938    -98.908  16220.578
      1895     182.498  -6162.398  -6129.396 -80538.302 -69133.945 -103444.796 -69036.164    -52.264    250.299     43.612  16222.514
      1900     180.300  -6161.947  -6129.342 -80605.854 -69132.473 -103748.920 -68936.169    -27.301     78.411     10.027  16224.450
      1905     177.734  -6161.431  -6129.290 -80639.531 -69216.234 -103764.979 -68937.379    301.202    227.945   -135.490  16226.386
      1910     177.879  -6161.407  -6129.240 -80907.123 -69394.128 -103896.519 -69430.723    313.186     70.037   -108.345  16228.322
      1915     176.948  -6161.186  -6129.188 -81027.287 -69327.459 -104173.253 -69581.148     23.483    182.275   -147.160  16230.258
      1920     176.428  -6161.033  -6129.129 -81145.330 -69289.731 -104598.835 -69547.422   -182.064    215.966   -126.691  16232.194
      1925     180.681  -6161.762  -6129.089 -81657.436 -70054.427 -104957.296 -69960.584   -193.991    279.758   -115.874  16234.131
      1930     174.456  -6160.569  -6129.021 -81417.547 -69846.701 -104761.480 -69644.460    -99.122    508.246   -311.037  16236.067
      1935     175.276  -6160.665  -6128.969 -81661.230 -69763.881 -105197.131 -70022.678   -149.998    342.180    -66.406  16238.003
      1940     180.506  -6161.562  -6128.920 -82191.688 -70383.208 -105635.723 -70556.134   -242.617    538.109    123.348  16239.939
      1945     178.068  -6161.065  -6128.864 -82168.262 -70721.218 -105576.503 -70207.065   -288.656    333.254    -95.004  16241.875
      1950     174.441  -6160.348  -6128.803 -82200.489 -70921.826 -105436.002 -70243.640   -144.552    230.915     77.778  16243.811
      1955     175.580  -6160.504  -6128.753 -82456.593 -70886.356 -105818.554 -70664.869   -149.900     75.548    166.522  16245.747
      1960     177.145  -6160.729  -6128.695 -82731.237 -70939.898 -106380.451 -70873.362   -279.987   -185.758    -19.542  16247.683
      1965     177.297  -6160.704  -6128.642 -82907.758 -70937.662 -106583.349 -71202.264   -134.014    -18.322    134.785  16249.619
      1970     173.509  -6159.952  -6128.576 -82826.145 -70794.621 -106556.559 -71127.254    122.701    -53.305    345.687  16251.555
      1975     176.398  -6160.427  -6128.528 -83286.159 -71414.736 -107212.311 -71231.428    157.289   -317.607     -1.000  16253.491
      1980     171.268  -6159.433  -6128.462 -83169.178 -71233.821 -107031.541 -71242.172   -130.245     32.395    -27.799  16255.428
      1985     171.350  -6159.387  -6128.401 -83320.764 -71385.064 -106968.407 -71608.820   -488.184    162.335    -42.846  16257.364
      1990     177.667  -6160.481  -6128.352 -83937.804 -72142.161 -107744.333 -71926.917   -287.961    -36.350   -189.774  16259.300
      1995     175.516  -6160.026  -6128.287 -83943.039 -72017.771 -107937.483 -71873.862    -93.280    142.814   -211.829  16261.236
      2000     175.347  -6159.937  -6128.228 -84112.566 -72160.717 -108197.094 -71979.888   -421.765    104.236   -105.642  16263.172
      2005     174.722  -6159.768  -6128.173 -84317.623 -72296.934 -108502.447 -72153.488   -133.649    187.657   -241.081  16265.108
      2010     169.614  -6158.773  -6128.101 -84149.406 -72016.917 -108434.128 -71997.174     56.311    138.758   -260.034  16267.044
      2015     174.115  -6159.535  -6128.049 -84609.468 -72451.489 -108943.468 -72433.446   -138.203     79.411   -283.709  16268.980
      2020     174.145  -6159.478  -6127.986 -84821.134 -72543.542 -109307.128 -72612.732    132.798    -34.609     58.891  16270.916
      2025     171.378  -6158.910  -6127.919 -84791.222 -72643.090 -109351.019 -72379.556    300.809    155.612     -9.256  16272.852
      2030     173.603  -6159.256  -6127.863 -85124.210 -72912.506 -109555.257 -72904.868    228.484    239.211   -230.171  16274.788
      2035     173.403  -6159.155  -6127.797 -85322.802 -72794.177 -109825.813 -73348.416    112.791   -115.692     78.302  16276.725
      2040     171.339  -6158.721  -6127.736 -85360.125 -73167.786 -110038.856 -72873.733     82.797    -71.234    203.993  16278.661
      2045     168.493  -6158.135  -6127.665 -85426.485 -73315.563 -110199.534 -72764.358   -197.544     14.815   -139.597  16280.597
      2050     174.295  -6159.130  -6127.612 -85937.222 -73546.411 -110573.878 -73691.375     27.980      7.923    127.158  16282.533
      2055     173.156  -6158.857  -6127.544 -86040.486 -73515.760 -110747.604 -73858.093    148.756    -67.533    285.199  16284.469
      2060     166.219  -6157.533  -6127.475 -85812.591 -73459.480 -110538.922 -73439.370   -172.844    229.818    -78.654  16286.405
      2065     166.374  -6157.487  -6127.401 -86000.359 -73590.984 -110889.195 -73520.898   -239.185    290.989   -114.063  16288.341
      2070     176.681  -6159.307  -6127.357 -86814.790 -73991.265 -112041.963 -74411.143    -87.447    187.601    142.383  16290.277
      2075     171.045  -6158.203  -6127.272 -86658.592 -73742.812 -111959.819 -74273.145     12.481    348.853    153.705  16292.213
      2080     171.304  -6158.195  -6127.217 -86880.053 -74149.379 -111897.436 -74593.343    -37.224    231.498    136.148  16294.149
      2085     166.514  -6157.252  -6127.141 -86749.639 -73986.040 -111765.696 -74497.182   -197.498    269.041    264.231  16296.085
      2090     167.789  -6157.412  -6127.070 -86976.708 -74172.855 -112186.915 -74570.355    -95.034    120.121    180.969  16298.022
      2095     175.968  -6158.841  -6127.019 -87724.154 -74995.086 -113201.750 -74975.626     81.202     -3.896     79.849  16299.958
      2100     167.983  -6157.315  -6126.938 -87364.060 -74790.371 -112772.322 -74529.486    225.797   -144.465    -13.379  16301.894
      2105     165.092  -6156.722  -6126.868 -87387.516 -74422.273 -112722.299 -75017.977    403.883    -22.230   -431.051  16303.830
      2110     169.575  -6157.474  -6126.809 -87848.552 -74742.326 -113558.634 -75244.696    217.946    312.581   -297.260  16305.766
      2115     168.251  -6157.153  -6126.727 -87948.147 -75092.838 -113686.398 -75065.205     33.307   -141.634     24.209  16307.702
      2120     171.020  -6157.597  -6126.671 -88297.418 -75737.959 -113646.240 -75508.054     68.372     14.360    -10.019  16309.638
      2125     164.222  -6156.282  -6126.585 -88090.834 -75357.880 -113846.784 -75067.837    258.015    143.313   -226.933  16311.574
      2130     165.518  -6156.451  -6126.520 -88367.824 -75463.699 -114189.393 -75450.382     72.806    -68.501   -134.703  16313.510
      2135     170.411  -6157.265  -6126.448 -88783.041 -75888.840 -114485.163 -75975.121    -27.870    310.715    -32.051  16315.446
      2140     170.899  -6157.288  -6126.384 -89001.794 -76059.900 -114970.149 -75975.333   -109.612    -68.589    -96.722  16317.382
      2145     162.885  -6155.754  -6126.299 -88775.041 -75692.941 -114911.967 -75720.215   -117.058     44.625     12.642  16319.319
      2150     164.604  -6155.995  -6126.229 -89002.234 -76138.760 -114854.654 -76013.290   -225.129    327.522    247.990  16321.255
      2155     169.388  -6156.794  -6126.163 -89471.216 -76658.340 -115227.200 -76528.109    -92.543   -188.077    241.209  16323.191
      2160     165.314  -6155.978  -6126.083 -89440.699 -76496.733 -115470.749 -76354.616    154.949    140.523    223.373  16325.127
      2165     164.746  -6155.800  -6126.009 -89569.442 -76651.606 -115727.461 -76329.260   -124.121    185.656    394.569  16327.063
      2170     167.048  -6156.146  -6125.937 -89842.766 -76789.187 -116045.836 -76693.274   -497.721   -245.748    262.944  16328.999
      2175     167.065  -6156.068  -6125.857 -90040.611 -76983.184 -116462.052 -76676.596   -305.676     34.905    127.201  16330.935
      2180     169.435  -6156.436  -6125.796 -90409.450 -77466.661 -116719.946 -77041.742   -140.160   -157.056     52.393  16332.871
      2185     158.914  -6154.435  -6125.698 -89953.539 -76803.741 -116420.429 -76636.448    -48.332   -384.877     86.157  16334.807
      2190     165.962  -6155.646  -6125.634 -90564.983 -77297.829 -117190.762 -77206.359     44.375   -303.734    304.188  16336.743
      2195     170.538  -6156.406  -6125.567 -91011.007 -77663.309 -117727.959 -77641.753     30.718     75.085    308.177  16338.679
      2200     159.367  -6154.287  -6125.468 -90520.384 -76785.160 -117358.817 -77417.174    146.544     19.228     24.919  16340.616
      2205     163.722  -6155.011  -6125.404 -90991.923 -77336.181 -117773.641 -77865.947    -28.423   -227.751   -115.500  16342.552
      2210     166.233  -6155.387  -6125.326 -91253.193 -78196.891 -117795.027 -77767.661   -117.211    150.362   -276.232  16344.488
      2215     162.895  -6154.701  -6125.244 -91245.602 -78401.213 -117808.096 -77527.495     71.140     71.456   -279.475  16346.424
      2220     161.843  -6154.435  -6125.168 -91411.326 -78138.319 -118232.739 -77862.921     61.316    -40.649     41.266  16348.360
      2225     161.810  -6154.343  -6125.082 -91578.783 -77927.462 -118575.100 -78233.787   -155.525    255.268    -88.968  16350.296
      2230     167.465  -6155.300  -6125.017 -92087.272 -78532.095 -119087.941 -78641.780    -62.070     22.544   -277.429  16352.232
      2235     162.758  -6154.356  -6124.923 -91952.280 -78624.252 -118817.730 -78414.859    120.459    169.321   -207.043  16354.168
      2240     161.820  -6154.115  -6124.852 -92088.787 -78701.375 -119026.827 -78538.159    -46.649     17.943    -11.023  16356.104
      2245     157.691  -6153.274  -6124.758 -92017.505 -78401.899 -119367.883 -78282.732     73.800   -233.810    188.826  16358.040
      2250     163.983  -6154.341  -6124.687 -92563.067 -78959.588 -119847.975 -78881.639     81.913   -113.479    146.401  16359.976
      2255     165.645  -6154.562  -6124.608 -92854.031 -79304.221 -120130.895 -79126.978   -119.041   -379.553    -35.560  16361.913
      2260     160.254  -6153.496  -6124.517 -92712.130 -78846.326 -120323.079 -78966.986    -17.977   -303.468   -148.078  16363.849
      2265     161.983  -6153.734  -6124.442 -93014.104 -79074.959 -120472.787 -79494.567    -54.501   -318.231   -238.423  16365.785
      2270     161.176  -6153.499  -6124.353 -93080.252 -79428.803 -120435.765 -79376.189    -56.744   -113.056    -67.615  16367.721
      2275     162.922  -6153.740  -6124.278 -93390.978 -79834.545 -120827.409 -79510.982    -37.487    113.679   -154.566  16369.657
      2280     158.451  -6152.838  -6124.185 -93331.923 -79773.401 -120892.437 -79329.930     79.906   -217.946   -147.152  16371.593
      2285     159.395  -6152.926  -6124.102 -93544.555 -79910.666 -121231.708 -79491.291    106.966    -98.984    168.777  16373.529
      2290     163.555  -6153.603  -6124.026 -93982.594 -80124.891 -121744.596 -80078.296     33.905    237.741    -75.788  16375.465
      2295     158.162  -6152.533  -6123.931 -93797.948 -79986.599 -121496.212 -79911.032     86.665     89.559    -96.770  16377.401
      2300     157.761  -6152.378  -6123.849 -93983.574 -80400.217 -121529.607 -80020.898    234.739    167.168    188.469  16379.337
      2305     159.170  -6152.547  -6123.763 -94266.927 -80406.862 -122172.327 -80221.593    -45.092    381.829    182.353  16381.274
      2310     160.891  -6152.771  -6123.677 -94506.241 -80531.421 -122653.553 -80333.750   -253.203    101.495    130.243  16383.210
      2315     163.034  -6153.078  -6123.595 -94838.074 -81018.730 -122751.153 -80744.338      6.053    293.142     -7.196  16385.146
      2320     157.743  -6152.028  -6123.502 -94653.055 -80735.983 -122527.095 -80696.088    142.313    103.148   -167.923  16387.082
      2325     157.510  -6151.898  -6123.415 -94828.370 -80822.221 -122833.163 -80829.727    -21.774   -193.348   -248.075  16389.018
      2330     160.121  -6152.290  -6123.334 -95177.738 -81250.759 -123049.851 -81232.602     26.289     31.739    -13.380  16390.954
      2335     157.147  -6151.655  -6123.238 -95126.572 -81384.384 -123104.187 -80891.144     92.148    290.260     29.068  16392.890
      2340     159.495  -6151.997  -6123.155 -95442.722 -81677.804 -123726.615 -80923.746    110.891     13.997    -68.657  16394.826
      2345     158.830  -6151.785  -6123.063 -95622.517 -81440.684 -124068.074 -81358.794     89.077   -194.504     37.632  16396.762
      2350     158.151  -6151.576  -6122.977 -95779.641 -81323.989 -124222.994 -81791.940    177.736     28.003     43.753  16398.698
      2355     154.627  -6150.840  -6122.878 -95709.263 -81435.444 -124165.970 -81526.375     38.942     54.246    -88.108  16400.634
      2360     160.275  -6151.779  -6122.795 -96178.768 -82192.167 -124690.289 -81653.847   -125.242    -45.049     26.830  16402.571
      2365     162.198  -6152.041  -6122.710 -96482.835 -82251.027 -125072.714 -82124.765   -176.384     -8.087    146.116  16404.507
      2370     153.372  -6150.344  -6122.609 -96154.549 -81429.237 -124974.444 -82059.965   -238.836    143.479    106.268  16406.443
      2375     154.196  -6150.401  -6122.517 -96406.555 -81801.106 -125249.772 -82168.787   -170.329     60.918     69.766  16408.379
      2380     160.017  -6151.374  -6122.437 -96873.821 -82504.820 -125537.221 -82579.420   -111.163    327.663    180.747  16410.315
      2385     154.983  -6150.359  -6122.333 -96772.829 -82324.549 -125388.574 -82605.365   -237.917    -24.699    150.613  16412.251
      2390     154.377  -6150.161  -6122.244 -96926.866 -82519.000 -125527.791 -82733.807    -26.313    -93.589    -18.042  16414.187
      2395     156.023  -6150.364  -6122.150 -97177.510 -82679.477 -126109.427 -82743.627    146.033    196.257   -157.111  16416.123
      2400     157.406  -6150.523  -6122.058 -97446.183 -82993.205 -126624.770 -82720.575    -56.962   -227.660    -32.159  16418.059
      2405     157.455  -6150.439  -6121.966 -97647.299 -82963.257 -126900.505 -83078.135     60.712   -283.361    100.586  16419.995
      2410     154.147  -6149.744  -6121.869 -97653.974 -83096.942 -126788.722 -83076.259    345.781     22.054     34.921  16421.931
      2415     151.497  -6149.165  -6121.769 -97624.045 -83298.126 -126554.826 -83019.184     91.896    -43.517    -87.671  16423.868
      2420     157.257  -6150.118  -6121.681 -98100.800 -83499.827 -127299.103 -83503.471   -133.380   -194.789    124.142  16425.804
      2425     158.638  -6150.279  -6121.591 -98383.457 -83674.513 -127813.575 -83662.284    111.633    -42.438    330.470  16427.740
      2430     150.615  -6148.716  -6121.479 -98068.807 -83495.795 -127426.474 -83284.152    129.440     95.177    448.896  16429.676
      2435     154.963  -6149.419  -6121.396 -98537.903 -83898.933 -127896.621 -83818.154   -101.234    156.072    388.675  16431.612
      2440     154.451  -6149.224  -6121.294 -98632.304 -83893.282 -128082.720 -83920.912   -183.890    211.202    185.098  16433.548
      2445     153.215  -6148.903  -6121.196 -98671.567 -83922.135 -128135.527 -83957.040   -154.691    124.669    186.282  16435.484
      2450     154.324  -6149.007  -6121.100 -98981.175 -84330.937 -128567.645 -84044.941   -225.106   -256.444    383.018  16437.420
      2455     153.628  -6148.782  -6121.001 -99103.601 -84483.205 -128699.260 -84128.339    -13.644    -15.240    242.725  16439.356
      2460     153.711  -6148.702  -6120.906 -99314.168 -84590.511 -128869.182 -84482.811    122.825    100.901   -158.922  16441.292
      2465     151.124  -6148.132  -6120.803 -99339.823 -84437.497 -129173.679 -84408.293   -118.035   -172.917    -55.717  16443.228
      2470     152.973  -6148.365  -6120.702 -99582.202 -84631.499 -129501.965 -84613.142   -155.971    -85.135    105.529  16445.165
      2475     157.540  -6149.104  -6120.615 -100031.734 -84987.233 -129870.730 -85237.240   -135.718     19.189   -116.038  16447.101
      2480     149.414  -6147.522  -6120.502 -99716.436 -84751.916 -129658.124 -84739.268    -72.041     15.890     29.329  16449.037
      2485     148.747  -6147.299  -6120.401 -99842.424 -85109.882 -129787.008 -84630.381     80.414    -30.511    162.668  16450.973
      2490     155.801  -6148.486  -6120.312 -100465.053 -85601.258 -130422.244 -85371.657    -90.256    161.283     69.726  16452.909
      2495     152.329  -6147.749  -6120.203 -100369.010 -85310.113 -130315.408 -85481.510      7.026    358.097     92.226  16454.845
      2500     149.944  -6147.215  -6120.100 -100428.048 -85482.724 -130399.692 -85401.728    214.946    285.207    161.490  16456.781
      2505     150.925  -6147.293  -6120.001 -100659.203 -85704.334 -130776.113 -85497.164    191.124    254.909    160.921  16458.717
      2510     151.276  -6147.252  -6119.896 -100861.007 -85719.752 -131200.832 -85662.436     63.633    287.085     95.166  16460.653
      2515     152.882  -6147.446  -6119.800 -101142.962 -86008.549 -131514.734 -85905.604    286.279    194.946    274.354  16462.589
      2520     148.426  -6146.529  -6119.688 -100999.460 -85857.064 -131393.614 -85747.703    464.935    379.806    182.426  16464.525
      2525     149.906  -6146.694  -6119.586 -101276.955 -86137.928 -131818.157 -85874.779    389.310    438.562    -78.844  16466.462
      2530     153.754  -6147.291  -6119.487 -101642.148 -86436.588 -132214.536 -86275.319    265.255     71.485     61.283  16468.398
      2535     153.496  -6147.139  -6119.381 -101776.445 -86626.131 -132089.344 -86613.861    101.174    168.811    153.369  16470.334
      2540     150.227  -6146.446  -6119.280 -101802.030 -86646.219 -131944.238 -86815.634    -13.141    140.897    189.333  16472.270
      2545     144.689  -6145.329  -6119.164 -101664.418 -86394.137 -132115.623 -86483.494     22.665    148.049    173.999  16474.206
      2550     149.138  -6146.037  -6119.068 -102073.253 -86624.513 -132847.701 -86747.545    -45.393    258.591     56.248  16476.142
      2555     151.350  -6146.328  -6118.958 -102345.153 -86755.515 -133363.876 -86916.067   -184.612    103.831    173.484  16478.078
      2560     153.176  -6146.558  -6118.859 -102656.973 -87173.875 -133622.344 -87174.700    -80.342    190.600    156.132  16480.014
      2565     149.081  -6145.706  -6118.747 -102594.843 -87016.605 -133539.126 -87228.799    117.870    131.076     54.728  16481.950
      2570     147.101  -6145.241  -6118.640 -102631.558 -86911.846 -133568.473 -87414.355    -80.463    105.260    102.001  16483.886
      2575     147.329  -6145.174  -6118.532 -102808.431 -87333.209 -133659.985 -87432.098    -83.440    160.653     56.718  16485.822
      2580     147.465  -6145.091  -6118.425 -102956.356 -87557.404 -133805.009 -87506.656    -71.069    150.393     67.672  16487.759
      2585     148.832  -6145.232  -6118.318 -103260.439 -87807.985 -134177.787 -87795.544   -379.713    249.622    182.822  16489.695
      2590     147.692  -6144.916  -6118.208 -103330.845 -87855.518 -134353.821 -87783.195   -288.973    144.475     39.835  16491.631
      2595     148.460  -6144.945  -6118.098 -103497.777 -87993.481 -134606.273 -87893.577   -153.311    -23.767     39.298  16493.567
      2600     151.994  -6145.482  -6117.996 -103936.025 -88493.187 -135108.259 -88206.628    -80.791    271.473    132.300  16495.503
      2605     146.728  -6144.414  -6117.880 -103718.614 -88181.855 -135062.223 -87911.766    -94.987    179.490    -50.085  16497.439
      2610     144.559  -6143.908  -6117.767 -103744.649 -88136.155 -135161.064 -87936.729   -126.128    -50.087    -69.861  16499.375
      2615     148.859  -6144.584  -6117.665 -104243.681 -88482.542 -135685.681 -88562.821      4.532     13.141    188.906  16501.311
      2620     146.212  -6143.990  -6117.550 -104230.052 -88461.963 -135781.157 -88447.037    179.819      6.003    104.693  16503.247
      2625     144.768  -6143.613  -6117.434 -104333.911 -88586.782 -135805.234 -88609.717     41.815    145.666     40.910  16505.183
      2630     148.932  -6144.268  -6117.336 -104751.360 -89077.639 -136334.948 -88841.493    -68.332     60.018    341.925  16507.119
      2635     143.999  -6143.248  -6117.208 -104544.498 -88821.749 -136447.003 -88364.740     15.767   -176.695    132.643  16509.056
      2640     147.760  -6143.827  -6117.106 -104952.182 -89078.665 -136719.090 -89058.791    -88.797    109.615   -186.084  16510.992
      2645     147.244  -6143.616  -6116.990 -105107.978 -89231.759 -136695.953 -89396.222     21.524    -22.717      8.972  16512.928
      2650     145.584  -6143.203  -6116.876 -105138.869 -89381.556 -136797.743 -89237.308     89.753   -154.260    203.267  16514.864
      2655     146.784  -6143.310  -6116.767 -105442.718 -89756.040 -137314.719 -89257.395    -13.288     81.919    286.139  16516.800
      2660     143.945  -6142.679  -6116.649 -105409.881 -89590.593 -137367.566 -89271.484     51.597    139.651    193.042  16518.736
      2665     144.679  -6142.696  -6116.533 -105591.343 -89654.079 -137523.667 -89596.282    154.712     39.388     94.274  16520.672
      2670     148.307  -6143.248  -6116.429 -105998.535 -90160.341 -137814.748 -90020.517    120.048      4.579    163.621  16522.608
      2675     141.426  -6141.874  -6116.300 -105736.632 -89751.873 -137671.630 -89786.392     35.736    146.519     63.167  16524.544
      2680     144.751  -6142.368  -6116.191 -106128.792 -90070.306 -138423.689 -89892.382    -77.671     55.547   -141.625  16526.480
      2685     148.063  -6142.856  -6116.081 -106454.901 -90649.384 -138631.958 -90083.360   -195.613     24.716   -172.086  16528.416
      2690     142.402  -6141.708  -6115.956 -106247.574 -90303.942 -138474.437 -89964.341   -183.704    157.822    -94.154  16530.353
      2695     142.673  -6141.642  -6115.842 -106479.417 -90224.332 -138905.748 -90308.171   -109.699     80.486      8.580  16532.289
      2700     146.195  -6142.168  -6115.731 -106839.474 -90449.375 -139272.643 -90796.403     -4.157    -67.174     -1.966  16534.225
      2705     143.070  -6141.480  -6115.608 -106797.484 -90538.493 -139236.184 -90617.774     -7.501    -60.034   -120.273  16536.161
      2710     143.570  -6141.454  -6115.492 -107050.865 -91020.481 -139488.817 -90643.297     37.855     27.089    -43.682  16538.097
      2715     146.051  -6141.791  -6115.380 -107337.894 -91338.931 -139701.662 -90973.090    333.606    231.339    178.341  16540.033
      2720     140.510  -6140.661  -6115.252 -107129.185 -90757.046 -139828.471 -90802.037    361.002     46.777    230.162  16541.969
      2725     140.585  -6140.556  -6115.133 -107294.248 -90843.561 -140263.895 -90775.289    220.452    143.990     85.874  16543.905
      2730     146.672  -6141.542  -6115.018 -107802.539 -91541.844 -140613.850 -91251.923    318.775    392.949    -14.788  16545.841
      2735     148.463  -6141.753  -6114.905 -108104.742 -91863.484 -140922.375 -91528.365    397.110    291.906     21.909  16547.777
      2740     140.052  -6140.103  -6114.777 -107767.818 -91408.509 -140635.339 -91259.604    306.187    418.696     42.841  16549.713
      2745     137.227  -6139.469  -6114.653 -107708.585 -91389.079 -140534.948 -91201.728    216.010    409.355     68.240  16551.650
      2750     143.732  -6140.534  -6114.543 -108282.500 -91859.921 -141262.242 -91725.337    224.252    202.963    151.535  16553.586
      2755     142.318  -6140.151  -6114.414 -108386.754 -92077.109 -141426.280 -91656.873    -46.380     66.516     17.622  16555.522
      2760     143.252  -6140.204  -6114.299 -108568.308 -92370.752 -141564.629 -91769.543   -316.114    132.962     46.744  16557.458
      2765     141.298  -6139.726  -6114.174 -108605.138 -92105.122 -141808.032 -91902.260   -177.439    176.856     21.062  16559.394
      2770     140.545  -6139.465  -6114.050 -108746.099 -92086.735 -142150.868 -92000.694   -277.183    165.039     14.804  16561.330
      2775     143.473  -6139.880  -6113.936 -109092.787 -92559.033 -142359.338 -92359.990   -446.362   -127.705    167.818  16563.266
      2780     139.061  -6138.951  -6113.804 -108984.952 -92479.478 -142312.331 -92163.046   -102.227    -89.357     49.102  16565.202
      2785     140.309  -6139.056  -6113.683 -109243.204 -92430.223 -142787.097 -92512.292    102.929    -35.764    -45.778  16567.138
      2790     142.516  -6139.335  -6113.563 -109460.553 -92613.379 -142926.954 -92841.324   -225.699   -164.415     59.283  16569.074
      2795     141.760  -6139.070  -6113.434 -109567.116 -92852.878 -143149.837 -92698.634   -314.172    108.134    176.008  16571.011
      2800     141.538  -6138.913  -6113.318 -109783.354 -93142.558 -143418.176 -92789.328    -78.633    -72.708    242.639  16572.947
      2805     135.340  -6137.652  -6113.178 -109486.058 -92920.795 -142949.719 -92587.660    -80.017   -342.974    258.959  16574.883
      2810     141.280  -6138.615  -6113.067 -109997.104 -93278.442 -143621.916 -93090.953   -144.654     46.488    -41.468  16576.819
      2815     141.975  -6138.615  -6112.941 -110268.374 -93282.366 -144122.574 -93400.183   -185.628     39.650    -72.551  16578.755
      2820     136.943  -6137.570  -6112.806 -110060.053 -93041.590 -143883.066 -93255.503   -203.680   -128.414    179.258  16580.691
      2825     140.758  -6138.141  -6112.687 -110458.706 -93553.003 -144241.623 -93581.491   -181.439      2.288    -30.675  16582.627
      2830     140.858  -6138.035  -6112.562 -110633.546 -93745.623 -144648.355 -93506.658   -318.139     21.561   -359.016  16584.563
      2835     137.314  -6137.256  -6112.425 -110564.871 -93703.847 -144630.130 -93360.636   -310.771    165.552   -236.097  16586.499
      2840     142.828  -6138.142  -6112.314 -111093.811 -94052.983 -145160.697 -94067.754    -34.080    229.255    -45.879  16588.435
      2845     135.825  -6136.734  -6112.172 -110825.215 -93725.909 -145086.089 -93663.646    -27.810    169.049     40.613  16590.371
      2850     136.699  -6136.765  -6112.045 -111038.217 -93996.557 -145199.061 -93919.032   -199.440    200.022    173.275  16592.308
      2855     142.408  -6137.680  -6111.928 -111510.133 -94526.008 -145510.980 -94493.412   -112.445    180.972    -37.203  16594.244
      2860     138.213  -6136.781  -6111.787 -111401.298 -94404.645 -145680.288 -94118.961    -42.891    198.909   -215.895  16596.180
      2865     138.895  -6136.786  -6111.668 -111672.513 -94532.037 -146172.001 -94313.502   -189.007    196.962    134.047  16598.116
      2870     134.762  -6135.898  -6111.529 -111531.679 -94246.714 -145927.770 -94420.553    -60.452    -27.789    470.117  16600.052
      2875     137.854  -6136.334  -6111.406 -111854.504 -94569.446 -146195.150 -94798.917     48.392    159.828    399.248  16601.988
      2880     139.935  -6136.584  -6111.279 -112199.680 -95094.424 -146621.117 -94883.499   -188.275    215.917    395.487  16603.924
[...]
     49305     102.810  -6135.637  -6117.045   7117.671   4399.185  12872.680   4081.148   -361.484    -50.497  -1005.758  34580.537
     49310     106.596  -6136.346  -6117.070   6376.114   3611.160  12003.668   3513.513   -209.587    -31.424  -1116.581  34582.473
     49315     106.406  -6136.325  -6117.083   5591.253   2781.253  11029.670   2962.838    -71.973     -2.058  -1177.908  34584.409
     49320     106.289  -6136.316  -6117.095   4725.325   1979.944  10043.881   2152.150     72.952     59.879  -1120.513  34586.346
     49325     111.583  -6137.298  -6117.120   3672.360   1065.709   8788.875   1162.497    314.161    -11.405  -1103.373  34588.282
     49330     108.417  -6136.728  -6117.122   2818.363    475.679   7570.564    408.848    588.379    -92.927   -902.514  34590.218
     49335     110.513  -6137.125  -6117.141   1728.241   -447.427   6173.848   -541.697    768.544   -111.654   -940.194  34592.154
     49340     110.272  -6137.087  -6117.146    654.475  -1447.365   4894.452  -1483.663    884.443    -54.745  -1116.424  34594.090
     49345     111.958  -6137.403  -6117.157   -372.884  -2240.638   3549.092  -2427.105   1035.351     -5.393  -1058.596  34596.026
     49350     112.658  -6137.537  -6117.164  -1289.839  -3046.062   2388.342  -3211.799   1163.317     40.812   -945.267  34597.962
     49355     111.405  -6137.314  -6117.168  -2197.249  -3913.815   1264.745  -3942.677   1244.448     64.572   -918.945  34599.898
     49360     112.290  -6137.482  -6117.176  -3240.206  -4902.090     61.381  -4879.909   1256.678     15.081   -959.640  34601.834
     49365     109.608  -6136.994  -6117.173  -4230.642  -5777.273  -1116.800  -5797.854   1319.535    -41.217   -776.645  34603.770
     49370     112.273  -6137.484  -6117.181  -5392.575  -6740.752  -2595.816  -6841.157   1514.429    -51.212   -681.907  34605.706
     49375     110.273  -6137.119  -6117.178  -6350.757  -7475.650  -3976.563  -7600.057   1617.130    -28.943   -643.435  34607.643
     49380     108.179  -6136.740  -6117.177  -7210.579  -8174.725  -5201.784  -8255.227   1779.257    -21.249   -587.783  34609.579
     49385     106.548  -6136.443  -6117.175  -8039.552  -8863.436  -6262.559  -8992.661   1885.176    -11.259   -618.896  34611.515
     49390     104.564  -6136.077  -6117.169  -8855.526  -9598.444  -7282.333  -9685.801   1887.331     83.236   -548.072  34613.451
     49395     105.850  -6136.310  -6117.168  -9752.963 -10370.207  -8410.083 -10478.600   1930.640     65.528   -474.322  34615.387
     49400     103.237  -6135.827  -6117.158 -10557.374 -11044.083  -9449.586 -11178.454   1971.275     37.846   -304.622  34617.323
     49405     101.487  -6135.504  -6117.151 -11349.774 -11782.473 -10400.556 -11866.293   2054.497     14.993    -97.210  34619.259
     49410      99.594  -6135.153  -6117.142 -12087.994 -12371.659 -11374.061 -12518.263   1984.717   -117.658    -18.808  34621.195
     49415      97.451  -6134.754  -6117.131 -12772.436 -12908.712 -12368.379 -13040.218   2080.681   -110.295     48.783  34623.131
     49420      96.616  -6134.592  -6117.120 -13418.217 -13484.508 -13168.245 -13601.897   2262.794   -171.011    114.340  34625.067
     49425      95.425  -6134.365  -6117.109 -13914.919 -13889.991 -13824.237 -14030.528   2226.401   -165.566     61.420  34627.003
     49430      93.338  -6133.975  -6117.097 -14344.364 -14222.563 -14485.548 -14324.982   2207.219    -80.074     96.858  34628.940
     49435      90.377  -6133.421  -6117.078 -14750.918 -14544.802 -15072.419 -14635.534   2151.735    -26.013    152.983  34630.876
     49440      92.447  -6133.788  -6117.070 -15269.341 -15023.689 -15643.883 -15140.450   2024.784     21.911    189.169  34632.812
     49445      91.210  -6133.544  -6117.050 -15563.335 -15275.677 -16043.021 -15371.307   1975.630    117.960    237.632  34634.748
     49450      90.858  -6133.468  -6117.038 -15671.435 -15331.379 -16274.400 -15408.527   2016.726    218.190    309.945  34636.684
     49455      87.791  -6132.892  -6117.016 -15645.396 -15243.084 -16266.923 -15426.182   2073.191    164.469    422.673  34638.620
     49460      89.706  -6133.226  -6117.004 -15781.022 -15408.512 -16380.966 -15553.588   2094.270    181.901    522.864  34640.556
     49465      90.692  -6133.389  -6116.988 -15913.718 -15630.298 -16529.998 -15580.859   2091.280    148.470    488.722  34642.492
     49470      89.925  -6133.231  -6116.969 -15916.199 -15635.642 -16495.832 -15617.124   2043.768     53.224    564.391  34644.428
     49475      91.600  -6133.521  -6116.956 -15819.695 -15502.756 -16321.503 -15634.827   2013.418     41.860    621.973  34646.364
     49480      90.802  -6133.356  -6116.936 -15440.601 -15182.704 -15888.898 -15250.199   2102.167    -70.081    668.184  34648.301
     49485      93.571  -6133.847  -6116.926 -15039.788 -14928.898 -15375.144 -14815.321   2118.321   -175.440    769.087  34650.237
     49490      93.591  -6133.831  -6116.906 -14414.677 -14445.704 -14500.490 -14297.838   2030.239    -81.707    671.285  34652.173
     49495      97.177  -6134.471  -6116.898 -13787.865 -13931.553 -13598.210 -13833.831   1915.661     59.463    703.428  34654.109
     49500      98.771  -6134.744  -6116.883 -13101.342 -13375.266 -12672.760 -13256.001   1789.873     45.135    812.822  34656.045
     49505     100.844  -6135.108  -6116.872 -12457.226 -12766.195 -11842.900 -12762.584   1676.609    -17.205    809.147  34657.981
     49510     102.997  -6135.490  -6116.864 -11799.782 -12127.138 -11064.787 -12207.422   1565.939     -8.352    794.381  34659.917
     49515     101.921  -6135.280  -6116.849 -10932.604 -11358.775  -9980.797 -11458.241   1446.877    -87.058    730.714  34661.853
     49520     106.713  -6136.146  -6116.848 -10188.023 -10800.094  -8939.559 -10824.415   1279.937    -42.607    753.006  34663.789
     49525     108.820  -6136.521  -6116.842  -9452.886 -10134.958  -7977.513 -10246.186   1270.492      5.347    841.270  34665.725
     49530     106.764  -6136.138  -6116.832  -8524.787  -9271.396  -6824.001  -9478.965   1273.983    -40.043    818.051  34667.661
     49535     109.612  -6136.654  -6116.832  -7469.007  -8467.564  -5416.340  -8523.118   1258.283     22.141    769.246  34669.598
     49540     112.903  -6137.248  -6116.832  -6331.800  -7579.701  -3883.056  -7532.644   1117.395     18.529    701.300  34671.534
     49545     114.156  -6137.475  -6116.832  -5281.896  -6618.279  -2620.258  -6607.152   1009.556    -28.049    632.073  34673.470
     49550     113.747  -6137.404  -6116.834  -4391.481  -5847.969  -1529.810  -5796.664   1025.410      7.270    621.008  34675.406
     49555     113.027  -6137.275  -6116.836  -3445.028  -5021.236   -212.475  -5101.373    959.497     18.862    647.700  34677.342
     49560     114.815  -6137.608  -6116.845  -2480.822  -4193.012   1099.338  -4348.791    860.529    -54.202    786.517  34679.278
     49565     114.948  -6137.637  -6116.850  -1520.277  -3331.313   2239.137  -3468.654    739.998    -32.585    927.763  34681.214
     49570     115.175  -6137.689  -6116.861   -668.160  -2519.846   3302.279  -2786.915    605.347     25.856    915.117  34683.150
     49575     114.925  -6137.652  -6116.869    234.280  -1706.589   4421.464  -2012.034    348.408    -20.655    940.902  34685.086
     49580     114.271  -6137.551  -6116.887   1330.272   -766.283   5771.950  -1014.852    194.351    -54.435   1011.346  34687.022
     49585     108.920  -6136.585  -6116.889   2573.027    340.016   7316.566     62.500    -30.813     32.927   1149.844  34688.958
     49590     113.460  -6137.437  -6116.920   3391.858   1015.320   8273.730    886.523   -242.739    -44.216   1197.483  34690.895
     49595     108.892  -6136.617  -6116.925   4343.517   1735.162   9437.794   1857.596   -299.870     24.625   1218.892  34692.831
     49600     107.845  -6136.451  -6116.949   5148.755   2396.978  10546.592   2502.694   -375.779    -19.099   1106.504  34694.767
     49605     106.311  -6136.188  -6116.963   5913.674   3089.182  11481.383   3170.457   -397.588   -104.167   1029.887  34696.703
     49610     106.313  -6136.216  -6116.991   6522.123   3645.141  12192.219   3729.009   -489.661    -87.026   1071.628  34698.639
     49615     101.546  -6135.366  -6117.003   7313.958   4469.666  13096.042   4376.167   -740.469   -118.695   1025.649  34700.575
     49620     101.613  -6135.407  -6117.032   8117.962   5215.797  14057.587   5080.503   -962.087    -58.960    977.203  34702.511
     49625     101.254  -6135.363  -6117.053   8876.876   5868.434  14975.671   5786.523  -1285.142    -40.307    996.354  34704.447
     49630     100.258  -6135.211  -6117.080   9310.170   6193.226  15571.801   6165.484  -1409.482     49.437    958.965  34706.383
     49635      96.056  -6134.469  -6117.099   9577.229   6402.248  15897.226   6432.213  -1586.561     49.972    915.861  34708.319
     49640      97.685  -6134.794  -6117.129   9772.648   6594.111  16121.884   6601.949  -1714.381    -18.086    747.559  34710.255
     49645      96.703  -6134.640  -6117.153  10107.221   6837.793  16508.821   6975.048  -1723.544    -85.377    593.047  34712.192
     49650      94.617  -6134.285  -6117.175  10340.517   7082.938  16782.836   7155.778  -1919.548   -127.583    501.688  34714.128
     49655      96.040  -6134.572  -6117.205  10284.746   7100.087  16732.931   7021.219  -1998.659   -215.185    404.075  34716.064
     49660      94.677  -6134.347  -6117.226  10234.136   7054.898  16752.977   6894.535  -2041.518   -184.264    383.134  34718.000
     49665      97.063  -6134.808  -6117.256  10094.964   6974.799  16586.123   6723.969  -2069.615    -11.935    356.842  34719.936
     49670      96.869  -6134.794  -6117.276   9955.953   6867.750  16375.519   6624.590  -2076.521     61.374    351.082  34721.872
     49675      98.679  -6135.149  -6117.305   9612.839   6431.911  15991.375   6415.230  -2225.151    160.233    366.856  34723.808
     49680      98.550  -6135.147  -6117.326   9165.325   6068.862  15347.495   6079.618  -2404.747    219.541    286.493  34725.744
     49685      97.884  -6135.049  -6117.349   8646.817   5642.103  14706.070   5592.279  -2435.266     66.139    178.325  34727.680
     49690     100.541  -6135.551  -6117.370   7923.050   5031.803  13886.766   4850.581  -2512.189      1.756     39.752  34729.616
     49695     104.385  -6136.273  -6117.396   7093.370   4322.153  12889.784   4068.173  -2481.686    -19.835    -45.808  34731.552
     49700     102.783  -6135.996  -6117.409   6360.877   3656.951  11942.804   3482.875  -2467.161    -77.910   -269.122  34733.489
     49705     105.648  -6136.538  -6117.433   5453.770   2856.083  10887.491   2617.736  -2544.938    -71.318   -479.050  34735.425
     49710     106.319  -6136.675  -6117.449   4569.945   2042.097   9838.957   1828.781  -2478.732   -115.754   -538.072  34737.361
     49715     105.774  -6136.591  -6117.464   3669.527   1130.730   8819.851   1057.998  -2424.158   -177.624   -647.474  34739.297
     49720     109.212  -6137.230  -6117.481   2658.249    191.996   7562.862    219.887  -2357.681   -169.059   -641.041  34741.233
     49725     111.234  -6137.612  -6117.497   1638.766   -647.390   6231.147   -667.458  -2277.458   -170.597   -686.715  34743.169
     49730     108.090  -6137.050  -6117.504    646.445  -1411.745   4917.868  -1566.788  -2186.915   -161.868   -722.296  34745.105
     49735     108.937  -6137.215  -6117.515   -535.142  -2409.225   3456.299  -2652.500  -2068.785   -106.448   -714.812  34747.041
     49740     111.034  -6137.605  -6117.526  -1662.492  -3361.228   1951.003  -3577.252  -2008.013   -121.544   -793.726  34748.977
     49745     109.657  -6137.362  -6117.532  -2503.650  -4070.427    840.594  -4281.118  -2006.985    -32.065   -859.548  34750.913
     49750     109.799  -6137.391  -6117.536  -3312.493  -4785.731   -129.416  -5022.333  -2040.098     76.215   -891.890  34752.849
     49755     111.510  -6137.713  -6117.548  -4284.610  -5736.484  -1331.791  -5785.555  -1984.466     52.544   -852.888  34754.786
     49760     107.747  -6137.026  -6117.541  -5195.378  -6580.049  -2498.994  -6507.091  -1813.679     12.688   -807.366  34756.722
     49765     110.066  -6137.458  -6117.555  -6220.551  -7354.559  -3784.030  -7523.063  -1650.532     58.897   -826.837  34758.658
     49770     106.149  -6136.742  -6117.546  -7026.402  -7980.915  -4858.724  -8239.568  -1423.623    -13.697   -810.536  34760.594
     49775     106.411  -6136.793  -6117.551  -7947.965  -8848.427  -6066.997  -8928.471  -1267.615   -104.298   -837.845  34762.530
     49780     106.195  -6136.754  -6117.550  -8865.091  -9755.229  -7201.036  -9639.009  -1129.125    -62.625   -841.157  34764.466
     49785     103.179  -6136.202  -6117.544  -9749.413 -10579.461  -8369.024 -10299.755   -982.781   -105.815   -802.968  34766.402
     49790     101.501  -6135.896  -6117.541 -10679.175 -11330.340  -9589.029 -11118.157   -869.020   -109.511   -723.224  34768.338
     49795      99.015  -6135.438  -6117.532 -11505.734 -11985.075 -10672.046 -11860.080   -732.631    -77.491   -746.732  34770.274
     49800      98.340  -6135.310  -6117.527 -12201.320 -12516.478 -11635.620 -12451.863   -754.061    -77.140   -706.672  34772.210
     49805      97.823  -6135.207  -6117.517 -12786.713 -12982.886 -12375.454 -13001.799   -733.325    -97.142   -602.802  34774.146
     49810      97.223  -6135.092  -6117.511 -13376.816 -13522.875 -13073.051 -13534.521   -744.412    -76.189   -625.774  34776.083
     49815      92.929  -6134.301  -6117.497 -13911.860 -13905.234 -13787.026 -14043.321   -819.477     -3.719   -631.029  34778.019
     49820      91.615  -6134.050  -6117.483 -14489.611 -14265.818 -14579.554 -14623.462   -725.451    -92.488   -700.574  34779.955
     49825      94.634  -6134.595  -6117.482 -15054.125 -14690.281 -15327.185 -15144.908   -549.630   -124.049   -686.005  34781.891
     49830      88.122  -6133.389  -6117.453 -15212.856 -14852.058 -15598.693 -15187.818   -440.668    -65.956   -746.261  34783.827
     49835      91.091  -6133.924  -6117.452 -15527.364 -15131.806 -15990.891 -15459.396   -336.330    -93.567   -917.897  34785.763
     49840      90.085  -6133.724  -6117.433 -15644.447 -15236.159 -16082.743 -15614.440   -131.502    -57.168   -884.486  34787.699
     49845      88.424  -6133.409  -6117.419 -15635.378 -15252.526 -16081.141 -15572.467     35.419    -21.164   -908.582  34789.635
     49850      88.921  -6133.485  -6117.405 -15631.681 -15263.304 -16112.494 -15519.244    227.096   -100.047   -996.833  34791.571
     49855      89.931  -6133.653  -6117.390 -15634.760 -15321.815 -16107.346 -15475.120    342.854    -93.844   -928.226  34793.507
     49860      91.057  -6133.846  -6117.380 -15607.743 -15394.892 -16050.460 -15377.878    473.583    -12.496   -917.258  34795.443
     49865      88.344  -6133.334  -6117.358 -15345.699 -15181.885 -15807.657 -15047.555    571.047     -6.064   -912.208  34797.380
     49870      91.486  -6133.894  -6117.350 -15065.428 -14914.800 -15459.831 -14821.654    613.496     55.276   -915.019  34799.316
     49875      93.370  -6134.219  -6117.334 -14646.379 -14568.200 -14871.334 -14499.603    733.479     86.772   -827.474  34801.252
     49880      96.029  -6134.690  -6117.324 -14284.852 -14208.030 -14363.440 -14283.086    812.128    102.786   -759.091  34803.188
     49885      96.175  -6134.703  -6117.311 -13804.488 -13737.166 -13758.415 -13917.882    922.337     62.466   -780.869  34805.124
     49890      97.140  -6134.865  -6117.299 -13167.786 -13257.775 -12919.213 -13326.369   1027.854      9.259   -706.209  34807.060
     49895      98.819  -6135.162  -6117.292 -12412.642 -12673.321 -11845.364 -12719.242   1168.198     54.519   -758.645  34808.996
     49900      99.499  -6135.272  -6117.279 -11600.252 -11932.405 -10729.631 -12138.720   1372.151     27.763   -870.176  34810.932
     49905     104.583  -6136.191  -6117.279 -10955.892 -11412.686  -9862.833 -11592.158   1556.494    -23.275   -824.121  34812.868
     49910     104.189  -6136.109  -6117.268 -10127.872 -10703.426  -8786.975 -10893.216   1643.578     29.583   -827.414  34814.804
     49915     105.585  -6136.359  -6117.265  -9250.767  -9882.564  -7675.196 -10194.542   1715.291     10.496   -746.047  34816.740
     49920     108.704  -6136.921  -6117.263  -8349.694  -9271.461  -6507.264  -9270.358   1872.466    -66.545   -657.714  34818.677
     49925     109.965  -6137.149  -6117.263  -7374.121  -8568.730  -5169.109  -8384.525   1912.914   -107.718   -540.752  34820.613
     49930     109.356  -6137.037  -6117.262  -6327.955  -7590.589  -3812.245  -7581.032   1969.519   -122.724   -394.918  34822.549
     49935     110.683  -6137.278  -6117.263  -5261.028  -6586.393  -2542.874  -6653.818   2062.948    -49.171   -383.125  34824.485
     49940     113.703  -6137.836  -6117.274  -4277.226  -5767.857  -1316.012  -5747.809   2022.241    -27.077   -407.645  34826.421
     49945     111.337  -6137.404  -6117.270  -3222.589  -4813.811      1.796  -4855.752   2012.150     25.260   -407.241  34828.357
     49950     114.733  -6138.035  -6117.288  -2382.122  -4050.619   1059.481  -4155.228   2102.289     52.096   -374.138  34830.293
     49955     112.548  -6137.643  -6117.290  -1380.047  -3174.026   2325.072  -3291.189   2149.769     27.503   -334.010  34832.229
     49960     111.357  -6137.439  -6117.302   -419.982  -2356.903   3541.514  -2444.558   2190.672     55.762   -191.642  34834.165
     49965     112.054  -6137.578  -6117.315    499.447  -1493.019   4692.995  -1701.636   2300.587    100.003   -127.283  34836.101
     49970     111.977  -6137.580  -6117.331   1456.253   -667.960   5918.132   -881.413   2359.720    102.931     -0.581  34838.038
     49975     109.760  -6137.190  -6117.342   2468.220    202.751   7144.098     57.813   2481.816     53.588    177.070  34839.974
     49980     110.118  -6137.276  -6117.363   3342.464    906.495   8253.316    867.582   2442.197    123.240    214.700  34841.910
     49985     107.896  -6136.890  -6117.379   4214.282   1682.098   9379.648   1581.100   2423.530    -23.524    335.485  34843.846
     49990     106.441  -6136.646  -6117.398   5061.398   2514.799  10436.046   2233.349   2457.779    -96.995    619.717  34845.782
     49995     104.253  -6136.271  -6117.419   5882.138   3263.045  11376.776   3006.592   2427.691   -109.286    787.182  34847.718
     50000     102.528  -6135.981  -6117.440   6612.633   3915.172  12269.158   3653.568   2293.082   -148.198    931.337  34849.654
Loop time of 66.0709 on 1 procs for 50000 steps with 1400 atoms

Performance: 326.921 ns/day, 0.073 hours/ns, 756.763 timesteps/s
7.7% CPU use with 1 MPI tasks x 1 OpenMP threads

MPI task timing breakdown:
Section |  min time  |  avg time  |  max time  |%varavg| %total
---------------------------------------------------------------
Pair    | 51.895     | 51.895     | 51.895     |   0.0 | 78.54
Neigh   | 9.0535     | 9.0535     | 9.0535     |   0.0 | 13.70
Comm    | 0.71712    | 0.71712    | 0.71712    |   0.0 |  1.09
Output  | 2.7991     | 2.7991     | 2.7991     |   0.0 |  4.24
Modify  | 1.281      | 1.281      | 1.281      |   0.0 |  1.94
Other   |            | 0.325      |            |       |  0.49

Nlocal:           1400 ave        1400 max        1400 min
Histogram: 1 0 0 0 0 0 0 0 0 0
Nghost:           2440 ave        2440 max        2440 min
Histogram: 1 0 0 0 0 0 0 0 0 0
Neighs:          36054 ave       36054 max       36054 min
Histogram: 1 0 0 0 0 0 0 0 0 0
FullNghs:        72108 ave       72108 max       72108 min
Histogram: 1 0 0 0 0 0 0 0 0 0

Total # of neighbors = 72108
Ave neighs/atom = 51.505714
Neighbor list builds = 7872
Dangerous builds = 1445

###Write a binary restart file of the current state of the simulation
write_restart restart.deform_NVT
System init for write_restart ...


Total wall time: 0:01:06
