LAMMPS (23 Jun 2022 - Update 1)
OMP_NUM_THREADS environment is not set. Defaulting to 1 thread. (src/comm.cpp:98)
  using 1 OpenMP thread(s) per MPI task
Loaded 1 plugins from C:\Users\morga\AppData\Local\LAMMPS 64-bit 23Jun2022\plugins
#### set simulation box #####
units metal                        ## use metal unit system - see lammps manual
boundary p p p
atom_style atomic                  ## default atom style for metals

read_restart restart.equil_NPT     ## read in restart file
Reading restart file ...
  restart file = 23 Jun 2022, LAMMPS = 23 Jun 2022
  restoring atom style atomic from restart
  orthogonal box = (-0.042790004 -0.11981201 -0.042790004) to (17.64279 49.399812 17.64279)
  1 by 1 by 1 MPI processor grid
  pair style eam stores no restart info
  1400 atoms
  read_restart CPU = 0.008 seconds


pair_style eam                     ## set interatomic potential style to be EAM
pair_coeff * * Ni_u3.eam
Reading eam potential file Ni_u3.eam with DATE: 2007-06-11

neighbor 0.3 bin ## define parameters for neighbor list
neigh_modify delay 5 ## define parameters for neighbor list

compute c1 all pe/atom                              ### compute potential energy per atom
compute c2 all cna/atom 2.005                       ### compute CNA per atom
compute c3 all stress/atom	NULL                    ### compute stress tensor per atom



thermo 5 ## Output system information every 5 timesteps
#### Output step No., temperature, potential energy, total energy,
#### total pressure, pressure component, box volume
thermo_style custom step temp pe etotal press pxx pyy pzz pxy pxz pyz vol
thermo_modify format float %10.3f ## set output format
timestep 0.005 ## set timestep size

### system deform by NVT+Deform ###
reset_timestep 0
dump 1a all custom 200 dump_FCCNi_deform_001.atom id type x y z c_c1 c_c2 c_c3[1] c_c3[2] c_c3[3]
#Using NVT to control temperature
fix 1 all nvt temp 300 300 5
#Using "fix deform" to perform tensile test along y direction
fix 2 all deform 1 y erate 0.005 remap x
run  50000	## run the simulation for 50000 steps
Unused restart file global fix info:
  fix style: npt, fix ID: 1f
Neighbor list info ...
  update every 1 steps, delay 5 steps, check yes
  max neighbors/atom: 2000, page size: 100000
  master list distance cutoff = 5.1
  ghost atom cutoff = 5.1
  binsize = 2.55, bins = 7 20 7
  2 neighbor lists, perpetual/occasional/extra = 1 1 0
  (1) pair eam, perpetual
      attributes: half, newton on
      pair build: half/bin/atomonly/newton
      stencil: half/bin/3d
      bin: standard
  (2) compute cna/atom, occasional
      attributes: full, newton on
      pair build: full/bin/atomonly
      stencil: full/bin/3d
      bin: standard
Per MPI rank memory allocation (min/avg/max) = 8.348 | 8.348 | 8.348 Mbytes
   Step          Temp          PotEng         TotEng         Press           Pxx            Pyy            Pzz            Pxy            Pxz            Pyz           Volume    
         0     296.853  -6172.581  -6118.899  -1499.418  -1410.228  -1154.451  -1933.574    752.942    339.669    595.935  15488.735
         5     310.746  -6175.114  -6118.921  -2394.350  -2509.453  -2275.882  -2397.715   -120.491    338.105    366.762  15490.671
        10     300.100  -6173.157  -6118.889  -2034.633  -1904.290  -2287.163  -1912.445     -7.452    427.745    226.825  15492.607
        15     291.859  -6171.659  -6118.881  -1853.991  -1781.206  -2032.741  -1748.027    111.364    708.051    316.441  15494.543
        20     299.932  -6173.121  -6118.883  -2552.529  -2725.252  -2521.709  -2410.625    364.472    664.827    321.247  15496.480
        25     305.270  -6174.087  -6118.883  -3021.092  -3077.774  -3126.145  -2859.356    210.510    258.966    123.322  15498.416
        30     298.524  -6172.837  -6118.854  -2833.048  -2760.463  -3211.396  -2527.285    295.346    -63.309    103.443  15500.352
        35     303.993  -6173.838  -6118.866  -3344.496  -3966.867  -3057.060  -3009.561    304.975     77.053    214.022  15502.288
        40     299.474  -6173.002  -6118.847  -3374.896  -3812.043  -3216.118  -3096.528    393.130   -204.616    326.087  15504.224
        45     295.825  -6172.324  -6118.829  -3379.933  -3398.243  -4032.789  -2708.766    722.232    -37.413    188.661  15506.160
        50     306.922  -6174.343  -6118.841  -4181.951  -3933.345  -4376.390  -4236.117    178.826    307.113     38.563  15508.096
        55     301.377  -6173.320  -6118.820  -4099.363  -3485.690  -4187.408  -4624.991    155.064    129.265    460.547  15510.032
        60     293.071  -6171.800  -6118.802  -3927.527  -3432.834  -4690.385  -3659.363    539.116    359.059    781.636  15511.968
        65     297.486  -6172.588  -6118.792  -4260.717  -4001.329  -5247.339  -3533.483    476.763    505.036    -72.097  15513.904
        70     310.543  -6174.955  -6118.798  -5227.230  -4685.654  -6636.646  -4359.390    141.209    244.615   -408.368  15515.840
        75     301.235  -6173.254  -6118.780  -4909.155  -4541.182  -5859.127  -4327.156    511.296    141.447    160.713  15517.777
        80     285.975  -6170.456  -6118.741  -4397.965  -4483.001  -5041.149  -3669.745    390.846    587.181    263.202  15519.713
        85     300.624  -6173.128  -6118.765  -5402.900  -5220.988  -6377.216  -4610.497    203.752     51.453   -117.430  15521.649
        90     303.624  -6173.641  -6118.735  -5675.962  -5194.746  -6731.256  -5101.883    273.005   -153.024   -234.813  15523.585
        95     304.745  -6173.846  -6118.738  -6023.995  -5549.660  -7078.963  -5443.362   -281.409    449.068   -235.463  15525.521
       100     291.812  -6171.462  -6118.693  -5452.022  -4948.769  -6713.228  -4694.069   -298.771    204.756   -461.518  15527.457
       105     304.695  -6173.816  -6118.717  -6439.876  -5801.778  -7549.177  -5968.673   -128.821   -284.461   -143.655  15529.393
       110     296.404  -6172.276  -6118.675  -6242.785  -5156.109  -7275.932  -6296.314    -16.365   -401.970    350.963  15531.329
       115     300.483  -6173.018  -6118.680  -6691.036  -5509.055  -8270.990  -6293.063    -72.948    -94.876   -151.705  15533.265
       120     301.972  -6173.268  -6118.661  -6970.894  -6118.797  -9009.754  -5784.133    301.100   -302.137    -75.701  15535.201
       125     297.323  -6172.402  -6118.636  -6870.252  -5836.323  -8518.576  -6255.858    -39.368    345.720    421.682  15537.137
       130     302.569  -6173.351  -6118.636  -7417.275  -6316.361  -9156.286  -6779.178   -338.737   -345.890    382.696  15539.074
       135     295.890  -6172.104  -6118.596  -7228.577  -6606.512  -9753.066  -5326.151    182.582   -182.984    -37.840  15541.010
       140     304.321  -6173.647  -6118.615  -7978.902  -7402.719 -10142.544  -6391.443    143.379    -32.231   -208.135  15542.946
       145     294.054  -6171.739  -6118.563  -7559.311  -6480.726  -9134.735  -7062.473   -148.168   -221.782     10.541  15544.882
       150     300.921  -6172.991  -6118.574  -8178.394  -7272.219  -9803.416  -7459.547    567.856    -66.476    404.002  15546.818
       155     296.096  -6172.078  -6118.533  -8106.822  -7674.694 -10028.010  -6617.763    782.673    -11.178    185.037  15548.754
       160     300.461  -6172.864  -6118.530  -8543.090  -7740.295 -10769.377  -7119.600    222.256    -85.792    823.690  15550.690
       165     300.093  -6172.781  -6118.514  -8759.182  -7429.395 -10742.398  -8105.754    654.218    -71.971    765.610  15552.626
       170     294.524  -6171.741  -6118.481  -8645.735  -7284.303 -10726.571  -7926.331    569.437   -320.718    533.836  15554.562
       175     303.177  -6173.314  -6118.489  -9354.040  -8196.769 -11930.314  -7935.035     94.444    300.955    734.748  15556.498
       180     293.443  -6171.506  -6118.441  -9008.937  -8213.389 -11381.322  -7432.099    374.718    -76.056    226.302  15558.434
       185     299.937  -6172.687  -6118.448  -9634.206  -8486.710 -12086.410  -8329.497   -137.253   -354.829    118.591  15560.371
       190     297.825  -6172.262  -6118.405  -9684.275  -8267.569 -11961.563  -8823.693   -289.083   -258.652     31.684  15562.307
       195     304.305  -6173.443  -6118.414 -10263.053  -9218.326 -12584.556  -8986.278    162.086    -24.419     35.586  15564.243
       200     292.588  -6171.273  -6118.363  -9832.384  -9314.223 -12268.167  -7914.763    383.551    -18.996    161.077  15566.179
       205     300.484  -6172.703  -6118.365 -10498.747  -9597.301 -12722.670  -9176.271   -266.135   -371.139   -288.352  15568.115
       210     300.682  -6172.711  -6118.337 -10638.325  -9709.190 -12856.105  -9349.680   -243.107   -130.277    143.308  15570.051
       215     299.891  -6172.553  -6118.322 -10959.375 -10156.232 -13145.740  -9576.152    158.711     67.587   -221.675  15571.987
       220     291.093  -6170.931  -6118.291 -10611.139  -8980.176 -13200.602  -9652.640   -160.996     37.273   -233.201  15573.923
       225     296.719  -6171.929  -6118.272 -11118.744  -9763.880 -13766.148  -9826.202     69.953      4.684    334.517  15575.859
       230     305.523  -6173.515  -6118.266 -11814.245 -11218.964 -14570.963  -9652.807   -195.143    185.582    233.588  15577.795
       235     293.115  -6171.228  -6118.223 -11294.187 -10100.865 -13893.467  -9888.227    158.141    268.329    863.649  15579.731
       240     295.908  -6171.720  -6118.209 -11748.087 -10245.254 -14517.339 -10481.666    129.268    432.413    404.056  15581.668
       245     302.643  -6172.920  -6118.192 -12266.784 -11013.644 -15646.174 -10140.534     -4.938    270.734    -26.547  15583.604
       250     299.072  -6172.247  -6118.164 -12353.263 -11176.628 -15549.920 -10333.240    672.943     14.581    299.422  15585.540
       255     291.065  -6170.764  -6118.129 -12107.399 -10841.700 -14881.243 -10599.253     53.821     15.989    331.035  15587.476
       260     303.823  -6173.073  -6118.131 -13027.392 -11575.709 -15987.814 -11518.651    -29.259    459.392   -648.263  15589.412
       265     296.302  -6171.666  -6118.085 -12798.171 -11735.641 -15989.158 -10669.714     52.890    753.169   -578.601  15591.348
       270     295.443  -6171.496  -6118.069 -12887.594 -11719.960 -16118.740 -10824.084    224.643     75.444    -65.769  15593.284
       275     301.845  -6172.632  -6118.048 -13498.990 -11649.106 -16708.024 -12139.839    616.425    -82.589    109.284  15595.220
       280     296.521  -6171.638  -6118.017 -13495.258 -11726.594 -16779.705 -11979.476    198.145    713.539     40.027  15597.156
       285     291.850  -6170.764  -6117.988 -13391.951 -11510.364 -16903.542 -11761.946    205.680   -312.724    243.337  15599.092
       290     299.278  -6172.092  -6117.972 -13996.403 -12552.801 -17281.188 -12155.219    -39.835    126.365    168.973  15601.028
       295     299.290  -6172.070  -6117.948 -14223.445 -12622.981 -17517.586 -12529.769    -25.009    162.549    -14.077  15602.965
       300     290.785  -6170.486  -6117.902 -13987.638 -12114.216 -17787.981 -12060.719    -90.244   -256.095    372.101  15604.901
       305     302.465  -6172.600  -6117.903 -14797.126 -13202.557 -18697.509 -12491.310   -263.663    366.606    151.135  15606.837
       310     299.029  -6171.927  -6117.852 -14876.143 -13200.697 -19018.643 -12409.089     88.234   -152.341   -189.388  15608.773
       315     296.972  -6171.547  -6117.844 -14930.727 -13127.528 -18915.136 -12749.516    102.705   -288.157   -336.016  15610.709
       320     289.063  -6170.057  -6117.784 -14707.279 -12796.114 -18521.626 -12804.098    -24.874    -99.472   -299.263  15612.645
       325     300.607  -6172.154  -6117.794 -15563.312 -13714.546 -19724.706 -13250.686    590.266     97.797    140.242  15614.581
       330     294.826  -6171.052  -6117.737 -15455.733 -13746.804 -19398.510 -13221.884    -90.721     86.480    118.815  15616.517
       335     297.335  -6171.480  -6117.711 -15777.913 -14034.689 -19857.672 -13441.378   -254.169     21.236    264.859  15618.453
       340     303.795  -6172.644  -6117.707 -16331.606 -14341.265 -20890.793 -13762.761    -29.966    -39.327    288.791  15620.389
       345     291.357  -6170.325  -6117.637 -15925.126 -13716.899 -20132.336 -13926.141   -258.268   -372.174    214.378  15622.325
       350     295.589  -6171.087  -6117.635 -16296.126 -14536.673 -20110.519 -14241.187   -621.981     95.737    641.607  15624.262
       355     296.893  -6171.288  -6117.599 -16625.543 -15264.035 -20522.255 -14090.339   -840.136    217.571    889.228  15626.198
       360     293.966  -6170.723  -6117.564 -16658.925 -14975.183 -20701.249 -14300.342   -481.697   -625.918    734.006  15628.134
       365     293.027  -6170.527  -6117.538 -16841.414 -15001.200 -21214.107 -14308.936   -222.739   -578.184    617.855  15630.070
       370     296.064  -6171.040  -6117.502 -17176.284 -15201.834 -21656.987 -14670.030    175.738     63.260    211.493  15632.006
       375     300.120  -6171.749  -6117.477 -17533.055 -15401.864 -22159.888 -15037.413    -92.531    -26.882    484.765  15633.942
       380     296.613  -6171.079  -6117.442 -17630.037 -15644.058 -21888.342 -15357.712   -199.431   -187.078    587.533  15635.878
       385     291.327  -6170.081  -6117.399 -17531.467 -15678.191 -21697.438 -15218.772    216.941    152.260    155.659  15637.814
       390     295.750  -6170.863  -6117.381 -17965.726 -16130.126 -22545.730 -15221.321    733.174    260.564    178.023  15639.750
       395     298.495  -6171.320  -6117.342 -18290.456 -15824.308 -23289.186 -15757.875    593.524   -164.854    307.261  15641.686
       400     302.314  -6171.987  -6117.318 -18664.193 -16224.803 -23731.071 -16036.705    409.530    316.974    132.167  15643.622
       405     296.876  -6170.966  -6117.281 -18637.228 -16518.264 -23284.692 -16108.727     61.363    190.550    282.396  15645.559
       410     291.510  -6169.955  -6117.240 -18558.169 -16094.344 -23512.977 -16067.184    362.212   -171.353    578.442  15647.495
       415     295.696  -6170.684  -6117.211 -19024.362 -16450.972 -24250.239 -16371.874    176.836    703.626    595.137  15649.431
       420     295.749  -6170.656  -6117.174 -19167.946 -16959.263 -23969.819 -16574.755   -294.932    570.112    662.935  15651.367
       425     291.744  -6169.895  -6117.137 -19080.640 -16466.118 -24215.447 -16560.356    -56.323    106.092    692.118  15653.303
       430     292.441  -6169.975  -6117.091 -19434.415 -16653.391 -24689.441 -16960.413   -488.302    204.221    460.867  15655.239
       435     302.280  -6171.744  -6117.081 -20165.087 -17639.490 -25468.538 -17387.232   -672.394    352.559    473.568  15657.175
       440     292.158  -6169.856  -6117.024 -19775.717 -17294.822 -25193.912 -16838.417   -266.446   -108.768    574.480  15659.111
       445     291.751  -6169.749  -6116.991 -20016.602 -17606.084 -25403.330 -17040.393     -2.189    -29.128    311.166  15661.047
       450     297.172  -6170.700  -6116.961 -20461.873 -17404.141 -26126.288 -17855.189   -163.866    417.741     54.724  15662.983
       455     300.558  -6171.273  -6116.922 -20834.268 -17491.167 -26376.385 -18635.254   -429.753   -166.681    125.414  15664.920
       460     296.840  -6170.564  -6116.885 -20908.351 -18024.870 -26545.559 -18154.626   -181.206    -79.464    -82.894  15666.856
       465     288.963  -6169.083  -6116.828 -20569.135 -17696.252 -26359.283 -17651.869   -236.652    -14.351     99.589  15668.792
       470     300.809  -6171.212  -6116.815 -21503.041 -18489.814 -27023.361 -18995.948    253.755    -65.649    370.069  15670.728
       475     290.624  -6169.314  -6116.759 -21208.714 -17673.918 -27044.279 -18907.944    191.786    157.650     24.477  15672.664
       480     288.299  -6168.851  -6116.716 -21237.893 -18046.045 -27203.442 -18464.193   -178.767    -32.315     52.618  15674.600
       485     297.189  -6170.431  -6116.689 -21917.394 -19034.460 -28033.794 -18683.929    -62.890     74.653    679.248  15676.536
       490     298.428  -6170.609  -6116.642 -22133.351 -19645.530 -28081.675 -18672.848     81.187    498.437    292.608  15678.472
       495     295.261  -6169.999  -6116.605 -22243.909 -19787.722 -27951.630 -18992.374    157.686    573.297    218.363  15680.408
       500     289.622  -6168.926  -6116.552 -22191.652 -18856.306 -28143.136 -19575.515    242.723     90.340    337.943  15682.344
       505     299.058  -6170.607  -6116.526 -22878.042 -19160.871 -29513.728 -19959.527     69.525    438.438     60.269  15684.280
       510     295.844  -6169.975  -6116.476 -22849.285 -19614.578 -29254.780 -19678.498   -548.042    179.587    210.753  15686.217
       515     289.006  -6168.694  -6116.432 -22705.699 -19443.849 -28765.469 -19907.779     50.168   -223.954    212.670  15688.153
       520     285.389  -6167.985  -6116.377 -22662.818 -19434.834 -28788.416 -19765.204    231.448     -7.645     95.755  15690.089
       525     302.152  -6171.002  -6116.362 -23836.244 -20560.231 -30223.186 -20725.316     28.901   -116.886    364.896  15692.025
       530     303.953  -6171.280  -6116.314 -24130.695 -20885.765 -30354.351 -21151.969    501.867   -246.270    262.421  15693.961
       535     291.908  -6169.044  -6116.257 -23706.640 -20224.240 -30069.772 -20825.907    615.857    -40.751    282.123  15695.897
       540     288.468  -6168.381  -6116.216 -23745.717 -20388.078 -30760.082 -20088.993    -37.465    384.225    310.907  15697.833
       545     294.622  -6169.448  -6116.170 -24226.818 -20742.389 -31131.606 -20806.458   -222.508     -8.160    856.819  15699.769
       550     303.323  -6170.998  -6116.146 -24908.510 -21370.832 -31371.030 -21983.668     32.713    129.507    528.350  15701.705
       555     285.495  -6167.696  -6116.069 -24114.197 -20648.735 -30819.659 -20874.195   -347.048    -56.749    218.310  15703.641
       560     290.408  -6168.554  -6116.038 -24594.133 -20982.148 -31706.832 -21093.419   -590.862    322.140    364.590  15705.577
       565     302.522  -6170.715  -6116.009 -25477.384 -21836.168 -32715.615 -21880.368     17.932   -525.709     83.912  15707.514
       570     289.441  -6168.276  -6115.935 -24949.207 -21172.397 -31949.053 -21726.171    115.989    -38.871    129.803  15709.450
       575     289.445  -6168.238  -6115.897 -25145.529 -21639.206 -31949.258 -21848.122   -208.225   -124.117    281.672  15711.386
       580     297.096  -6169.581  -6115.855 -25749.509 -22410.898 -32460.229 -22377.400    -57.056   -296.712     41.179  15713.322
       585     296.967  -6169.513  -6115.811 -25961.263 -22758.607 -32868.917 -22256.265    346.154    176.717   -604.433  15715.258
       590     290.494  -6168.278  -6115.747 -25789.881 -22449.275 -33026.826 -21893.542    -78.476   -137.889   -467.560  15717.194
       595     297.698  -6169.560  -6115.726 -26411.313 -22725.787 -33525.119 -22983.034   -114.258   -120.787   -569.464  15719.130
       600     287.567  -6167.652  -6115.650 -26060.348 -22373.328 -33605.738 -22201.979    199.584     67.487   -158.755  15721.066
       605     291.332  -6168.302  -6115.619 -26468.625 -22870.619 -33951.788 -22583.468   -137.753    391.726    242.333  15723.002
       610     293.155  -6168.577  -6115.565 -26743.033 -22835.731 -33825.836 -23567.533    -91.462    146.957     44.403  15724.938
       615     293.013  -6168.504  -6115.517 -26886.707 -22915.307 -34384.577 -23360.236     -2.558   -157.391     46.880  15726.874
       620     296.091  -6169.016  -6115.472 -27270.799 -23564.315 -35239.545 -23008.538   -261.501    490.508    127.686  15728.811
       625     294.941  -6168.748  -6115.412 -27362.612 -23561.362 -34790.588 -23735.887   -147.286    304.863      7.117  15730.747
       630     295.641  -6168.824  -6115.362 -27601.939 -23579.408 -35075.752 -24150.656     27.695     24.459     70.035  15732.683
       635     296.052  -6168.866  -6115.329 -27888.094 -24143.789 -35835.128 -23685.367     38.330    256.223    154.929  15734.619
       640     283.500  -6166.512  -6115.245 -27367.510 -23808.841 -35446.367 -22847.321      6.544    418.312   -354.374  15736.555
       645     300.070  -6169.492  -6115.229 -28529.645 -24873.654 -36643.086 -24072.196     19.862    349.884   -181.779  15738.491
       650     290.987  -6167.778  -6115.157 -28133.567 -24133.406 -36238.876 -24028.418    379.385    -85.680      0.035  15740.427
       655     285.793  -6166.774  -6115.093 -28058.463 -24334.158 -35798.597 -24042.635    162.699     72.366     27.155  15742.363
       660     300.814  -6169.472  -6115.074 -29058.814 -25298.969 -36812.488 -25064.985    715.251    380.481    -65.096  15744.299
       665     291.212  -6167.652  -6114.991 -28728.887 -24599.389 -37072.861 -24514.411   1263.274     76.110   -373.694  15746.235
       670     292.666  -6167.873  -6114.949 -29086.983 -25079.339 -37597.244 -24584.367    237.517    129.481    162.578  15748.171
       675     288.700  -6167.089  -6114.882 -28986.736 -24812.920 -37243.980 -24903.307    -37.696    226.720     -8.557  15750.108
       680     296.816  -6168.521  -6114.847 -29730.808 -25246.959 -38312.022 -25633.441     -1.772   -203.733    137.849  15752.044
       685     290.729  -6167.344  -6114.770 -29453.659 -25250.913 -37858.448 -25251.616    167.049    632.756    472.261  15753.980
       690     298.437  -6168.708  -6114.740 -30207.771 -26221.068 -38567.099 -25835.145    341.128    464.437    -35.478  15755.916
       695     290.251  -6167.152  -6114.665 -29858.821 -25889.333 -38741.165 -24945.966     -6.690     42.240    229.903  15757.852
       700     287.238  -6166.551  -6114.608 -29877.626 -25939.799 -38761.438 -24931.640    243.596    526.219    166.774  15759.788
       705     297.781  -6168.422  -6114.573 -30799.064 -26671.051 -39401.967 -26324.174    179.194    112.654   -175.359  15761.724
       710     290.239  -6166.980  -6114.494 -30486.008 -25927.967 -39228.334 -26301.724   -165.014   -200.833   -220.861  15763.660
       715     292.195  -6167.287  -6114.448 -30850.987 -26697.001 -39838.651 -26017.309   -160.709    295.271    -43.530  15765.596
       720     291.010  -6167.002  -6114.377 -30870.357 -27048.201 -39771.311 -25791.559   -643.140   -127.050   -216.496  15767.532
       725     298.009  -6168.235  -6114.345 -31520.607 -27104.151 -40414.121 -27043.550   -473.161   -523.109    182.123  15769.468
       730     282.920  -6165.409  -6114.247 -30779.086 -26045.768 -39284.235 -27007.256   -520.799    219.956    211.939  15771.405
       735     293.333  -6167.264  -6114.220 -31667.255 -27146.589 -40446.645 -27408.531   -244.527    388.600   -158.560  15773.341
       740     295.371  -6167.570  -6114.157 -32014.116 -27739.688 -41185.102 -27117.557    311.795    -77.766   -201.264  15775.277
       745     287.277  -6166.030  -6114.080 -31655.476 -27103.100 -40813.925 -27049.403    479.217    243.924    343.018  15777.213
       750     296.235  -6167.612  -6114.042 -32452.790 -27808.586 -41567.429 -27982.353    585.825    266.134   -222.204  15779.149
       755     290.712  -6166.529  -6113.958 -32220.975 -27829.517 -41329.684 -27503.725    -50.101    -89.387   -237.357  15781.085
       760     298.115  -6167.838  -6113.929 -32932.719 -28434.154 -42578.571 -27785.431    222.218     30.016    179.615  15783.021
       765     285.453  -6165.451  -6113.831 -32381.148 -27919.598 -42005.885 -27217.960    710.193    225.979   -579.791  15784.957
       770     288.938  -6166.043  -6113.793 -32798.007 -28111.059 -42509.771 -27773.190     94.095    122.778    -33.978  15786.893
       775     294.013  -6166.887  -6113.719 -33209.059 -28456.044 -42802.928 -28368.205   -498.084    259.894    113.767  15788.829
       780     297.550  -6167.476  -6113.668 -33563.252 -29039.615 -42878.980 -28771.163    433.160    575.869   -669.208  15790.765
       785     291.973  -6166.395  -6113.596 -33565.749 -28671.200 -43106.179 -28919.867    -38.885    111.880    254.980  15792.702
       790     289.323  -6165.854  -6113.534 -33545.822 -28376.273 -43366.428 -28894.765   -226.580   -142.298    343.877  15794.638
       795     289.640  -6165.850  -6113.473 -33794.332 -29455.062 -42935.867 -28992.066    232.123     85.891   -229.245  15796.574
       800     290.885  -6166.011  -6113.408 -33989.135 -29693.262 -43153.922 -29120.222    147.577    132.273    304.240  15798.510
       805     289.505  -6165.695  -6113.342 -34106.513 -29101.101 -43978.111 -29240.326    -56.847    497.905     69.279  15800.446
       810     291.791  -6166.050  -6113.284 -34434.204 -29284.247 -44119.139 -29899.227     85.289    190.028   -289.831  15802.382
       815     289.910  -6165.636  -6113.210 -34537.164 -29890.703 -43900.445 -29820.343     85.919   -129.539      4.535  15804.318
       820     293.140  -6166.163  -6113.153 -34936.508 -29818.737 -44996.532 -29994.253    -32.025    235.767    450.418  15806.254
       825     296.971  -6166.792  -6113.090 -35309.585 -30139.879 -46004.913 -29783.965     98.496    260.912     23.568  15808.190
       830     290.509  -6165.548  -6113.014 -35130.897 -29714.249 -45902.639 -29775.804   -118.636    499.346    -27.057  15810.126
       835     288.023  -6165.030  -6112.945 -35194.521 -29616.466 -45414.971 -30552.126   -100.771    -49.426    222.550  15812.062
       840     291.137  -6165.534  -6112.886 -35558.990 -30217.281 -45804.895 -30654.794     60.208    433.574    288.313  15813.999
       845     289.213  -6165.112  -6112.813 -35618.952 -30588.405 -46255.421 -30013.030    344.025    150.927    164.920  15815.935
       850     293.947  -6165.908  -6112.752 -36069.781 -30957.491 -46304.888 -30946.964    231.162    395.703    168.159  15817.871
       855     291.977  -6165.481  -6112.681 -36106.495 -30700.545 -46209.900 -31409.038   -123.040    426.129    -89.132  15819.807
       860     287.137  -6164.521  -6112.597 -36044.025 -30655.161 -46229.209 -31247.706    220.298    398.830   -628.843  15821.743
       865     295.799  -6166.053  -6112.563 -36844.646 -31377.870 -47270.464 -31885.603     -8.485   -107.898   -430.968  15823.679
       870     284.036  -6163.818  -6112.454 -36205.008 -30572.605 -46577.194 -31465.225    -74.946   -185.663     80.618  15825.615
       875     296.760  -6166.075  -6112.411 -37176.538 -31704.968 -47822.488 -32002.158    521.258    259.740   -206.190  15827.551
       880     292.268  -6165.188  -6112.336 -37139.503 -31486.444 -48154.524 -31777.543    137.465    -93.049   -171.798  15829.487
       885     282.122  -6163.258  -6112.240 -36664.495 -31222.731 -47245.244 -31525.510   -477.807    -99.320    107.072  15831.423
       890     296.258  -6165.782  -6112.208 -37762.299 -32338.250 -48191.377 -32757.270    -13.608    308.901   -226.768  15833.359
       895     285.940  -6163.811  -6112.103 -37291.921 -32043.258 -47914.508 -31917.997    497.677     15.072   -697.917  15835.296
       900     289.784  -6164.452  -6112.049 -37772.916 -32137.855 -48581.830 -32599.064    506.503    369.269   -377.889  15837.232
       905     291.103  -6164.614  -6111.972 -37941.542 -32257.852 -48713.570 -32853.203     49.857    827.135     -2.204  15839.168
       910     292.565  -6164.809  -6111.903 -38211.923 -32625.427 -49228.850 -32781.492    274.210    304.275      4.188  15841.104
       915     290.374  -6164.337  -6111.828 -38317.072 -32577.329 -49388.293 -32985.594    -33.600    607.104    -78.710  15843.040
       920     291.545  -6164.478  -6111.756 -38533.031 -32532.921 -50161.665 -32904.507    201.706    683.242    148.207  15844.976
       925     292.715  -6164.617  -6111.684 -38869.236 -33213.986 -50523.101 -32870.622    690.441   -113.958   -256.734  15846.912
       930     285.789  -6163.271  -6111.590 -38587.555 -32810.490 -50119.761 -32832.415     16.843    156.216   -213.657  15848.848
       935     295.891  -6165.045  -6111.537 -39322.319 -33364.677 -50928.816 -33673.464   -280.278    113.335   -148.267  15850.784
       940     292.417  -6164.331  -6111.452 -39312.859 -33362.242 -51129.108 -33447.227    192.970   -455.492     76.014  15852.720
       945     284.333  -6162.787  -6111.370 -39130.149 -33209.864 -50818.662 -33361.921    113.582   -233.792   -112.817  15854.657
       950     287.133  -6163.228  -6111.304 -39484.212 -33711.601 -50884.967 -33856.068   -438.789    138.745   -212.086  15856.593
       955     289.410  -6163.562  -6111.226 -39747.805 -33052.548 -51907.215 -34283.651   -332.123    347.546     70.465  15858.529
       960     293.612  -6164.248  -6111.152 -40176.679 -33409.866 -52583.908 -34536.262   -308.321   -477.063    311.868  15860.465
       965     286.818  -6162.929  -6111.063 -39934.496 -33891.124 -51828.651 -34083.712   -444.695   -209.181    220.115  15862.401
       970     285.622  -6162.631  -6110.981 -40042.630 -34183.585 -52022.458 -33921.846   -343.435    119.968    174.055  15864.337
       975     297.478  -6164.714  -6110.919 -40894.811 -35589.027 -52753.461 -34341.944   -268.592   -434.315   -161.365  15866.273
       980     295.255  -6164.230  -6110.838 -40945.044 -35241.202 -52914.904 -34679.028   -240.928   -422.625    -65.249  15868.209
       985     286.267  -6162.511  -6110.744 -40745.286 -34141.425 -53709.529 -34384.903   -199.877   -253.285    194.764  15870.145
       990     289.742  -6163.069  -6110.673 -41110.425 -35147.399 -53972.692 -34211.183    -37.551    135.277   -131.282  15872.081
       995     292.532  -6163.495  -6110.595 -41432.541 -35848.409 -53636.970 -34812.243    141.052    383.567   -423.019  15874.017
      1000     288.931  -6162.750  -6110.501 -41413.426 -35108.407 -53523.360 -35608.510    408.806    165.569    253.440  15875.954
      1005     292.441  -6163.317  -6110.434 -41742.755 -35337.345 -54093.962 -35796.957   -167.555   -252.461    137.952  15877.890
      1010     286.077  -6162.068  -6110.336 -41604.625 -35670.201 -54112.483 -35031.190   -300.583     34.571    -62.261  15879.826
      1015     285.274  -6161.849  -6110.262 -41756.389 -35666.236 -54199.399 -35403.533    -38.889    424.952    411.735  15881.762
      1020     289.181  -6162.471  -6110.177 -42159.413 -35586.900 -54670.560 -36220.779   -156.380   -231.445    218.288  15883.698
      1025     295.715  -6163.583  -6110.108 -42713.977 -36044.191 -55480.493 -36617.248   -337.522   -633.815    158.721  15885.634
      1030     283.458  -6161.260  -6110.001 -42209.221 -35941.650 -55199.789 -35486.223    -94.646   -541.388    479.609  15887.570
      1035     286.385  -6161.717  -6109.928 -42528.203 -36276.864 -55480.770 -35826.977    127.913   -501.333    638.206  15889.506
      1040     293.935  -6162.999  -6109.845 -43096.667 -36478.446 -56185.398 -36626.156   -111.085   -303.119    429.988  15891.442
      1045     292.390  -6162.642  -6109.768 -43256.212 -36454.638 -56459.266 -36854.733     66.304    -13.744     50.238  15893.378
      1050     282.822  -6160.802  -6109.658 -42914.587 -36051.433 -56033.760 -36658.568    522.976   -121.599    222.561  15895.314
      1055     292.505  -6162.493  -6109.598 -43634.310 -37446.798 -56583.824 -36872.308    529.050     41.622    221.961  15897.251
      1060     291.878  -6162.274  -6109.492 -43669.533 -37590.073 -56406.514 -37012.013   -110.219    -46.365    273.790  15899.187
      1065     297.250  -6163.175  -6109.422 -44160.114 -37801.783 -56951.733 -37726.826    193.368    186.644    106.926  15901.123
      1070     287.444  -6161.310  -6109.330 -43920.913 -36904.830 -56931.970 -37925.939    925.245    289.296     33.980  15903.059
      1075     276.815  -6159.287  -6109.229 -43483.882 -36600.741 -56714.011 -37136.894     57.779   -129.930   -297.673  15904.995
      1080     288.429  -6161.319  -6109.161 -44357.934 -37868.821 -57435.337 -37769.646     51.982     66.847   -111.386  15906.931
      1085     290.078  -6161.519  -6109.062 -44536.060 -37727.855 -57657.018 -38223.306    155.840   -299.790   -147.168  15908.867
      1090     296.517  -6162.607  -6108.987 -45060.209 -37994.117 -58289.907 -38896.603   -270.283   -166.816   -344.691  15910.803
      1095     289.942  -6161.317  -6108.886 -44833.001 -37768.011 -57717.023 -39013.970   -204.882    331.277   -217.694  15912.739
      1100     288.417  -6160.951  -6108.796 -44978.295 -38138.970 -58249.792 -38546.124   -433.597      8.049   -102.885  15914.675
      1105     292.732  -6161.657  -6108.721 -45458.440 -38462.899 -58918.790 -38993.630   -400.412     71.690   -136.856  15916.611
      1110     281.496  -6159.504  -6108.600 -44929.955 -37801.088 -58353.816 -38634.962    -59.757    158.531    -21.623  15918.548
      1115     297.369  -6162.327  -6108.552 -46098.576 -39005.737 -59724.064 -39565.927    -29.702     62.560    -58.520  15920.484
      1120     285.832  -6160.117  -6108.428 -45562.775 -38495.556 -58883.123 -39309.647   -327.245   -121.157     64.143  15922.420
      1125     283.099  -6159.533  -6108.339 -45599.317 -38281.179 -59293.711 -39223.060      3.923    190.861    -49.320  15924.356
      1130     292.762  -6161.204  -6108.262 -46324.619 -39071.164 -60047.543 -39855.150    -74.768    -26.368    128.244  15926.292
      1135     290.480  -6160.683  -6108.154 -46315.392 -39198.062 -60049.306 -39698.810   -277.537     35.479    255.187  15928.228
      1140     294.015  -6161.252  -6108.083 -46759.352 -38989.753 -60820.617 -40467.685    -28.441    444.907   -376.829  15930.164
      1145     283.180  -6159.166  -6107.957 -46279.394 -38622.890 -60074.163 -40141.129   -412.703     97.627    293.267  15932.100
      1150     289.514  -6160.249  -6107.895 -46906.817 -39873.423 -60609.313 -40237.717   -444.811   -307.045    385.498  15934.036
      1155     283.560  -6159.050  -6107.772 -46669.460 -39702.013 -60829.141 -39477.225   -144.813    -45.085     -4.239  15935.972
      1160     296.074  -6161.246  -6107.705 -47534.834 -39921.578 -62141.026 -40541.898   -261.099    248.281    177.282  15937.908
      1165     291.921  -6160.391  -6107.602 -47596.609 -40155.144 -62274.097 -40360.587   -206.084   -326.587    130.095  15939.845
      1170     280.470  -6158.205  -6107.486 -47115.377 -40045.983 -61562.329 -39737.818    -16.812   -234.058    317.162  15941.781
      1175     292.133  -6160.239  -6107.411 -47932.586 -40437.944 -62026.611 -41333.204      8.783    -57.244     51.429  15943.717
      1180     290.224  -6159.789  -6107.306 -47901.256 -40069.923 -62556.983 -41076.863     69.499    310.351   -120.937  15945.653
      1185     285.584  -6158.847  -6107.204 -47890.396 -40093.481 -63322.411 -40255.297   -191.336    145.785    682.540  15947.589
      1190     291.202  -6159.780  -6107.120 -48447.697 -41158.381 -63393.124 -40791.586   -404.854    295.353    445.408  15949.525
      1195     287.574  -6159.013  -6107.010 -48344.851 -40932.000 -62611.267 -41491.286   -535.958    605.001    100.932  15951.461
      1200     286.416  -6158.714  -6106.920 -48546.261 -40766.000 -63134.601 -41738.181   -200.084    642.669    578.818  15953.397
      1205     283.540  -6158.080  -6106.806 -48467.698 -40497.557 -63395.577 -41509.961   -308.526    781.036    396.643  15955.333
      1210     294.539  -6159.988  -6106.725 -49253.455 -41751.772 -63979.026 -42029.566   -166.395    568.690      3.255  15957.269
      1215     294.397  -6159.854  -6106.617 -49404.765 -42249.564 -64216.682 -41748.049    564.511    827.522    469.888  15959.205
      1220     287.477  -6158.497  -6106.512 -49113.574 -41724.523 -63711.872 -41904.326    545.075    384.823    563.258  15961.142
      1225     288.031  -6158.505  -6106.419 -49513.372 -41625.051 -64561.555 -42353.509    306.018    349.656    336.215  15963.078
      1230     286.302  -6158.087  -6106.314 -49539.010 -41698.922 -64773.541 -42144.568    235.623    361.480    324.947  15965.014
      1235     287.447  -6158.192  -6106.212 -49719.326 -41878.582 -65224.213 -42055.183     49.264    252.495     95.059  15966.950
      1240     292.906  -6159.089  -6106.121 -50239.736 -42353.219 -65830.001 -42535.987    -60.661    234.456    -52.551  15968.886
      1245     287.181  -6157.933  -6106.000 -50047.823 -42394.422 -65382.869 -42366.178    240.622    -73.066     64.931  15970.822
      1250     289.043  -6158.180  -6105.911 -50342.747 -42346.919 -65932.571 -42748.750    321.418     61.932    258.114  15972.758
      1255     286.150  -6157.544  -6105.798 -50344.863 -42042.882 -66056.837 -42934.871    -77.616    274.217   -473.517  15974.694
      1260     287.558  -6157.704  -6105.703 -50578.396 -42231.007 -66366.922 -43137.258     66.954    -13.655   -547.513  15976.630
      1265     287.863  -6157.653  -6105.597 -50874.374 -42942.604 -66143.288 -43537.231    337.205     58.705    163.825  15978.566
      1270     289.410  -6157.828  -6105.493 -51125.895 -43537.025 -66168.841 -43671.819     49.494    215.540    -39.819  15980.502
      1275     291.423  -6158.094  -6105.395 -51342.335 -43536.861 -66903.867 -43586.276   -311.393    262.746   -261.040  15982.439
      1280     286.368  -6157.060  -6105.274 -51254.799 -43204.192 -67063.493 -43496.712   -426.478    929.674    274.029  15984.375
      1285     289.982  -6157.620  -6105.181 -51621.218 -43801.930 -67165.960 -43895.765    -86.490    340.798     52.031  15986.311
      1290     291.342  -6157.755  -6105.071 -51917.188 -44327.862 -67236.774 -44186.928   -322.302     89.078    -47.742  15988.247
      1295     291.137  -6157.619  -6104.971 -51999.387 -44134.046 -67535.063 -44329.052   -321.734    564.690    422.384  15990.183
      1300     287.537  -6156.850  -6104.854 -51993.499 -44116.497 -67585.944 -44278.055    -44.329     -0.900    402.643  15992.119
      1305     289.005  -6157.019  -6104.757 -52260.871 -44297.413 -68027.896 -44457.305     79.040   -532.262    -32.982  15994.055
      1310     286.300  -6156.411  -6104.638 -52268.628 -44482.501 -68266.568 -44056.815     40.428   -258.623    -36.142  15995.991
      1315     291.093  -6157.189  -6104.549 -52780.654 -45162.712 -68530.056 -44649.195   -520.609   -161.019    386.900  15997.927
      1320     282.606  -6155.524  -6104.419 -52434.390 -44470.103 -68107.035 -44726.032   -735.556   -116.728   -131.147  15999.863
      1325     288.880  -6156.563  -6104.323 -52975.913 -44677.830 -69243.635 -45006.275   -445.749   -252.200   -604.331  16001.799
      1330     293.990  -6157.381  -6104.217 -53416.118 -45028.761 -69779.760 -45439.832      5.724     26.729   -203.695  16003.736
      1335     287.454  -6156.081  -6104.100 -53207.938 -44938.803 -69119.888 -45565.121   -205.199    388.211   -447.865  16005.672
      1340     284.778  -6155.485  -6103.987 -53288.384 -45143.541 -68902.870 -45818.741   -486.275    494.189   -556.689  16007.608
      1345     290.543  -6156.436  -6103.896 -53749.622 -45483.581 -69816.654 -45948.631    -69.338    190.836     22.582  16009.544
      1350     285.514  -6155.396  -6103.765 -53668.895 -45227.998 -70239.080 -45539.607    -78.895    155.908     25.874  16011.480
      1355     286.255  -6155.428  -6103.663 -53789.213 -45539.660 -70263.600 -45564.379   -262.682    364.266   -403.116  16013.416
      1360     291.097  -6156.191  -6103.550 -54305.386 -45376.139 -70885.583 -46654.435    395.645    347.644     49.828  16015.352
      1365     292.022  -6156.253  -6103.446 -54500.432 -45787.868 -71091.868 -46621.560    263.469    392.123    484.320  16017.288
      1370     287.773  -6155.358  -6103.318 -54407.533 -46232.740 -71119.461 -45870.397    -90.783    399.210    344.268  16019.224
      1375     295.582  -6156.684  -6103.233 -55104.784 -46758.215 -71895.696 -46660.440     43.215    322.325    137.489  16021.160
      1380     283.679  -6154.394  -6103.095 -54584.153 -46282.410 -71172.273 -46297.777   -203.665     59.405   -156.773  16023.097
      1385     282.977  -6154.160  -6102.988 -54709.160 -46025.800 -71264.459 -46837.221   -341.779    -51.357     76.480  16025.033
      1390     288.672  -6155.086  -6102.884 -55159.052 -46314.272 -71938.865 -47224.020    285.156   -183.429   -266.786  16026.969
      1395     289.646  -6155.141  -6102.763 -55337.695 -46316.972 -72424.896 -47271.217   -109.942   -294.736   -245.807  16028.905
      1400     293.389  -6155.717  -6102.662 -55749.861 -47020.744 -72632.978 -47595.860   -406.186    -39.896    144.781  16030.841
      1405     284.570  -6153.992  -6102.532 -55417.248 -46635.719 -71910.738 -47705.286   -353.872   -243.178    -66.237  16032.777
      1410     285.674  -6154.091  -6102.431 -55702.749 -47077.530 -71953.600 -48077.117   -237.793   -411.719    265.539  16034.713
      1415     287.268  -6154.254  -6102.306 -55965.581 -47395.547 -72779.004 -47722.194   -189.047    -10.532    653.383  16036.649
      1420     293.539  -6155.287  -6102.205 -56412.204 -47548.004 -73660.704 -48027.903   -523.999   -172.617    488.847  16038.585
      1425     291.307  -6154.755  -6102.077 -56479.399 -47400.205 -73843.385 -48194.606   -524.843   -184.286    386.916  16040.521
      1430     288.526  -6154.144  -6101.968 -56548.889 -47617.840 -74120.851 -47907.978   -246.464   -297.190    452.428  16042.457
      1435     283.615  -6153.125  -6101.838 -56420.909 -47603.098 -73993.317 -47666.311    218.095     23.408    357.964  16044.394
      1440     290.120  -6154.206  -6101.742 -56921.840 -48089.876 -74085.590 -48590.055    206.931   -289.447     55.526  16046.330
      1445     284.071  -6152.978  -6101.608 -56765.222 -48024.725 -74004.818 -48266.122     22.834   -240.579     66.039  16048.266
      1450     288.254  -6153.632  -6101.506 -57161.014 -48526.129 -74794.221 -48162.692   -103.730   -291.782    428.477  16050.202
      1455     290.404  -6153.903  -6101.388 -57406.360 -48381.375 -74895.961 -48941.745    -86.054   -497.860    124.501  16052.138
      1460     288.326  -6153.404  -6101.265 -57503.483 -48242.294 -75075.766 -49192.390   -364.272   -424.147    362.918  16054.074
      1465     289.764  -6153.554  -6101.155 -57762.161 -48869.108 -75548.836 -48868.538   -237.906   -235.454    385.400  16056.010
      1470     288.800  -6153.254  -6101.029 -57867.967 -48791.710 -75931.548 -48880.644    -52.788   -600.168   -149.227  16057.946
      1475     287.188  -6152.855  -6100.921 -57994.164 -48737.440 -75974.648 -49270.403   -378.786   -115.973    -41.332  16059.882
      1480     279.217  -6151.272  -6100.780 -57661.404 -48343.887 -75081.226 -49559.100     -0.556   -441.629    401.687  16061.818
      1485     295.530  -6154.133  -6100.691 -58753.943 -49583.868 -76583.117 -50094.843    289.892   -199.253    466.463  16063.754
      1490     297.883  -6154.435  -6100.568 -58989.584 -50033.361 -77263.744 -49671.646     64.401   -410.696    398.701  16065.691
      1495     285.528  -6152.067  -6100.433 -58524.891 -49439.272 -76268.323 -49867.076    165.189   -975.417    269.368  16067.627
      1500     283.344  -6151.558  -6100.319 -58597.245 -49404.937 -76494.112 -49892.687    233.287   -316.183     54.537  16069.563
      1505     286.231  -6151.956  -6100.195 -58828.736 -49652.291 -76921.771 -49912.147     74.244   -371.491    198.387  16071.499
      1510     294.462  -6153.345  -6100.096 -59567.621 -50152.753 -77489.227 -51060.882    391.544   -444.179    183.313  16073.435
      1515     281.103  -6150.784  -6099.951 -59004.898 -49457.134 -76952.850 -50604.711    449.779     91.612      9.436  16075.371
      1520     285.783  -6151.518  -6099.839 -59427.688 -50032.205 -77637.890 -50612.967   -141.504    471.662    629.037  16077.307
      1525     299.988  -6153.981  -6099.733 -60324.767 -51106.071 -78658.214 -51210.017   -194.422    472.904    386.655  16079.243
      1530     291.096  -6152.237  -6099.596 -59923.319 -50832.511 -78328.252 -50609.194    -19.610    -15.634    215.712  16081.179
      1535     283.101  -6150.670  -6099.476 -59788.902 -50342.880 -78308.710 -50715.117   -220.838    357.868    386.137  16083.115
      1540     283.066  -6150.540  -6099.352 -59889.615 -49953.869 -78511.313 -51203.664   -239.794    640.731    217.596  16085.051
      1545     292.889  -6152.211  -6099.247 -60639.189 -51048.750 -79219.620 -51649.196   -212.687    280.452    375.057  16086.988
      1550     284.788  -6150.605  -6099.106 -60258.389 -51093.941 -78486.539 -51194.689   -150.854    489.197    222.901  16088.924
      1555     286.875  -6150.867  -6098.990 -60557.467 -51142.902 -78858.363 -51671.136     79.656    674.399    219.696  16090.860
      1560     293.560  -6151.969  -6098.883 -61234.379 -51496.682 -79960.873 -52245.581    130.391    588.300    528.959  16092.796
      1565     286.067  -6150.470  -6098.739 -60828.153 -51138.570 -79743.495 -51602.393    -72.698    772.306    -42.447  16094.732
      1570     291.819  -6151.406  -6098.635 -61350.773 -51864.464 -80055.592 -52132.264   -256.898    340.659   -160.060  16096.668
      1575     289.176  -6150.796  -6098.502 -61310.573 -51643.764 -80147.967 -52139.989    -76.730   -137.648   -152.891  16098.604
      1580     285.567  -6150.025  -6098.384 -61380.404 -51455.094 -80497.825 -52188.293   -153.762    377.016   -703.310  16100.540
      1585     280.268  -6148.937  -6098.254 -61278.592 -51044.746 -80693.894 -52097.138   -229.356     18.447   -656.653  16102.476
      1590     288.929  -6150.384  -6098.135 -61873.433 -52076.404 -81166.407 -52377.489   -319.465   -458.375   -321.209  16104.412
      1595     297.446  -6151.818  -6098.029 -62481.397 -53031.493 -81541.447 -52871.253   -251.311   -415.015   -443.184  16106.348
      1600     284.173  -6149.266  -6097.878 -61853.506 -52031.295 -80904.133 -52625.091      6.715   -213.365   -452.758  16108.285
      1605     283.865  -6149.100  -6097.767 -62158.872 -51632.974 -81885.067 -52958.576   -176.169   -105.826    417.289  16110.221
      1610     288.118  -6149.745  -6097.643 -62402.055 -51967.801 -82120.142 -53118.221   -700.748   -192.883    184.795  16112.157
      1615     291.444  -6150.225  -6097.521 -62757.108 -53441.770 -81932.883 -52896.673   -462.659   -270.630   -366.436  16114.093
      1620     289.444  -6149.735  -6097.393 -62866.487 -53661.656 -81948.613 -52989.192     77.284     27.174    215.035  16116.029
      1625     287.470  -6149.256  -6097.271 -62854.960 -52369.422 -82585.601 -53609.859   -120.488     -4.890    210.231  16117.965
      1630     286.200  -6148.900  -6097.145 -63082.703 -52538.186 -82942.103 -53767.820   -256.725   -210.402   -523.028  16119.901
      1635     288.755  -6149.235  -6097.019 -63257.231 -53168.493 -83035.752 -53567.448   -215.185    -62.563   -234.151  16121.837
      1640     294.704  -6150.205  -6096.912 -63805.551 -53991.337 -83523.530 -53901.787   -476.879    -25.431    433.982  16123.773
      1645     283.026  -6147.945  -6096.764 -63370.584 -53124.650 -83322.346 -53664.758   -500.781     85.546   -105.856  16125.709
      1650     282.297  -6147.689  -6096.640 -63422.266 -53161.567 -83423.787 -53681.444   -768.156   -198.750    140.171  16127.645
      1655     294.113  -6149.726  -6096.540 -64308.694 -54507.905 -84158.433 -54259.743   -440.603    141.535    620.993  16129.582
      1660     285.162  -6147.952  -6096.385 -63907.183 -53662.030 -83644.118 -54415.402    421.977    -96.796    204.629  16131.518
      1665     287.862  -6148.339  -6096.283 -64318.592 -54219.837 -83836.513 -54899.425    461.377     35.554   -234.394  16133.454
      1670     287.205  -6148.075  -6096.138 -64416.651 -54402.000 -84185.350 -54662.602    -30.857    229.999   -176.818  16135.390
      1675     290.548  -6148.570  -6096.029 -64634.469 -54433.944 -84697.645 -54771.817    303.196   -607.957   -144.370  16137.326
      1680     285.660  -6147.545  -6095.887 -64598.031 -54401.553 -85007.709 -54384.830    246.729     63.980    154.446  16139.262
      1685     291.336  -6148.455  -6095.772 -65080.744 -55060.588 -85353.436 -54828.209     18.354    311.693    411.903  16141.198
      1690     295.075  -6149.014  -6095.654 -65536.427 -55199.124 -85589.890 -55820.266   -178.880   -478.095     28.270  16143.134
      1695     281.374  -6146.389  -6095.507 -64846.593 -54261.110 -85003.563 -55275.107   -148.381    -21.418    128.756  16145.070
      1700     282.587  -6146.489  -6095.388 -65040.970 -54736.097 -85701.061 -54685.752   -364.864    204.782    313.616  16147.006
      1705     290.631  -6147.836  -6095.280 -65783.763 -55528.580 -86142.175 -55680.533   -225.638   -209.295    220.232  16148.942
      1710     282.804  -6146.265  -6095.124 -65415.541 -55174.312 -85448.356 -55623.954   -215.659   -365.159   -100.796  16150.879
      1715     295.967  -6148.554  -6095.033 -66312.454 -56083.151 -86369.034 -56485.176   -348.908   -196.215   -151.553  16152.815
      1720     287.780  -6146.925  -6094.885 -66054.834 -55589.466 -86158.706 -56416.330    222.387   -458.417   -325.454  16154.751
      1725     280.584  -6145.499  -6094.759 -65723.019 -55235.903 -85793.169 -56139.986    509.009   -370.393   -473.819  16156.687
      1730     283.776  -6145.949  -6094.632 -66108.650 -55930.667 -86367.143 -56028.139    -17.707   -511.273   -474.330  16158.623
      1735     292.942  -6147.496  -6094.522 -66773.229 -56682.584 -87356.623 -56280.480    102.757   -442.894   -407.347  16160.559
      1740     288.092  -6146.478  -6094.381 -66683.987 -55975.157 -87469.640 -56607.164     79.132    -23.215   -350.543  16162.495
      1745     287.346  -6146.215  -6094.253 -66776.637 -56033.086 -87371.835 -56924.990    -94.298   -302.881    156.930  16164.431
      1750     292.068  -6146.952  -6094.135 -67235.362 -56676.688 -88322.706 -56706.693   -141.471   -317.733    255.037  16166.367
      1755     287.365  -6145.968  -6094.003 -67208.654 -56638.330 -88495.611 -56492.022    -97.603   -107.496    -47.933  16168.303
      1760     283.125  -6145.064  -6093.865 -67049.061 -56407.884 -88330.192 -56409.106    -74.355    217.740   -210.988  16170.239
      1765     293.699  -6146.865  -6093.754 -67809.486 -57183.689 -89411.348 -56833.421   -396.816    -27.364   -110.379  16172.176
      1770     292.361  -6146.489  -6093.620 -67844.666 -57129.521 -89430.255 -56974.221     13.230   -267.305    -93.529  16174.112
      1775     285.595  -6145.135  -6093.489 -67716.822 -57029.096 -88783.104 -57338.266      5.912   -170.424   -353.167  16176.048
      1780     280.140  -6144.017  -6093.358 -67618.425 -56734.884 -88920.667 -57199.724   -641.261   -147.730     42.605  16177.984
      1785     284.265  -6144.638  -6093.232 -67980.758 -57200.615 -89302.125 -57439.535   -596.303   -792.650   -336.895  16179.920
      1790     292.412  -6145.990  -6093.112 -68535.380 -57806.970 -89831.352 -57967.818   -884.588   -493.685   -537.940  16181.856
      1795     289.374  -6145.298  -6092.969 -68428.966 -57491.655 -89745.858 -58049.385   -825.746   -392.694   -150.817  16183.792
      1800     291.190  -6145.510  -6092.852 -68788.405 -57725.433 -90583.312 -58056.471    200.843   -704.701    174.944  16185.728
      1805     286.533  -6144.531  -6092.716 -68761.319 -57953.839 -90452.872 -57877.245     -1.087   -511.129    256.934  16187.664
      1810     287.849  -6144.641  -6092.587 -68939.559 -58140.356 -90241.691 -58436.630   -447.429     22.905    410.775  16189.600
      1815     289.682  -6144.849  -6092.465 -69206.818 -58027.880 -90681.120 -58911.455   -469.720    258.500    433.365  16191.536
      1820     282.819  -6143.466  -6092.322 -68989.810 -57887.120 -91160.406 -57921.905   -673.220    832.468    541.939  16193.473
      1825     285.744  -6143.873  -6092.201 -69273.334 -58429.496 -91294.206 -58096.299   -337.336    607.905    758.434  16195.409
      1830     287.679  -6144.096  -6092.074 -69569.370 -58651.059 -91267.112 -58789.941   -431.430    667.810    667.117  16197.345
      1835     284.562  -6143.391  -6091.933 -69563.837 -58734.276 -91321.495 -58635.740   -966.430    760.713    296.885  16199.281
      1840     287.709  -6143.838  -6091.810 -69833.064 -58481.999 -91710.239 -59306.954   -706.556     -3.563    368.390  16201.217
      1845     290.410  -6144.201  -6091.685 -70243.819 -58838.055 -92019.024 -59874.376   -620.347   -538.638    -85.201  16203.153
      1850     287.340  -6143.502  -6091.541 -70183.757 -59059.287 -92307.217 -59184.768   -348.064    234.687   -330.265  16205.089
      1855     291.271  -6144.098  -6091.426 -70547.202 -59692.610 -92887.325 -59061.669    -54.901     87.389     -8.022  16207.025
      1860     284.750  -6142.776  -6091.283 -70379.904 -59296.389 -92672.271 -59171.053    115.268   -306.573   -252.337  16208.961
      1865     284.663  -6142.631  -6091.154 -70502.909 -59086.839 -92677.390 -59744.497   -342.876   -130.082   -159.393  16210.897
      1870     292.295  -6143.894  -6091.037 -71149.303 -59681.623 -93680.286 -60086.000    -52.265    351.036     67.508  16212.834
      1875     285.881  -6142.587  -6090.890 -70848.085 -59641.079 -93200.592 -59702.585   -234.645    676.485   -238.262  16214.770
      1880     282.339  -6141.822  -6090.765 -70866.618 -59615.653 -92895.776 -60088.424   -342.698    -78.062   -209.489  16216.706
      1885     285.814  -6142.324  -6090.639 -71339.359 -60279.368 -93203.212 -60535.498    261.975   -189.043    -13.914  16218.642
      1890     283.985  -6141.848  -6090.493 -71179.510 -60439.662 -93376.833 -59722.035    340.450    359.958   -277.266  16220.578
      1895     295.024  -6143.734  -6090.383 -72032.291 -61116.690 -94720.069 -60260.115   -363.050    327.443     52.620  16222.514
      1900     289.740  -6142.635  -6090.240 -71913.772 -60899.613 -94842.345 -59999.360   -114.481    169.566    563.699  16224.450
      1905     281.760  -6141.051  -6090.099 -71595.393 -60558.409 -94481.228 -59746.541    418.447    276.703   -115.100  16226.386
      1910     288.497  -6142.152  -6089.982 -72257.672 -61097.960 -94973.127 -60701.931   -314.221    258.199   -163.082  16228.322
      1915     281.731  -6140.781  -6089.834 -71813.946 -60602.380 -94648.715 -60190.742   -548.673    396.646      2.568  16230.258
      1920     285.379  -6141.316  -6089.710 -72326.697 -60718.310 -95608.680 -60653.101   -343.478    115.640    -89.310  16232.194
      1925     287.685  -6141.601  -6089.578 -72627.085 -61325.380 -95722.647 -60833.229   -350.886    120.117    -92.874  16234.131
      1930     287.763  -6141.478  -6089.440 -72692.708 -61585.685 -95665.750 -60826.688   -145.080    267.986     -7.016  16236.067
      1935     290.635  -6141.875  -6089.318 -73138.427 -61322.328 -96389.303 -61703.650   -106.985      5.776    156.618  16238.003
      1940     286.321  -6140.948  -6089.171 -72990.582 -61374.882 -96074.701 -61522.163    -12.529    186.948    670.083  16239.939
      1945     287.560  -6141.048  -6089.047 -73210.888 -62012.901 -96360.571 -61259.193   -152.931   -117.347    379.792  16241.875
      1950     284.343  -6140.323  -6088.904 -73246.488 -62396.283 -96126.344 -61216.836     98.883     34.574    482.452  16243.811
      1955     286.108  -6140.518  -6088.779 -73475.780 -62456.177 -96565.661 -61405.503     43.757    -31.203    715.961  16245.747
      1960     284.610  -6140.111  -6088.643 -73594.877 -62053.804 -97161.363 -61569.465   -385.438     86.930    349.166  16247.683
      1965     282.668  -6139.615  -6088.499 -73548.286 -61820.377 -97029.343 -61795.138   -132.245    -20.349    492.006  16249.619
      1970     291.967  -6141.181  -6088.383 -74198.485 -62480.946 -97661.038 -62453.469    249.370   -536.963    745.678  16251.555
      1975     288.939  -6140.486  -6088.235 -74221.529 -62654.558 -98128.257 -61881.774    -21.479   -416.857    239.461  16253.491
      1980     281.981  -6139.093  -6088.101 -73933.365 -62607.094 -97503.452 -61689.548   -622.537    -34.796   -265.150  16255.428
      1985     284.229  -6139.365  -6087.966 -74331.801 -63096.532 -97668.018 -62230.852   -637.669   -111.787   -383.273  16257.364
      1990     288.410  -6139.995  -6087.841 -74737.968 -63227.525 -98331.065 -62655.312    -44.082     71.472   -368.223  16259.300
      1995     286.444  -6139.493  -6087.694 -74702.231 -63145.187 -98302.648 -62658.859   -536.052   -148.893   -676.032  16261.236
      2000     289.520  -6139.925  -6087.570 -75054.245 -63803.809 -98622.300 -62736.627  -1105.218    109.256   -594.619  16263.172
      2005     282.416  -6138.487  -6087.416 -74763.910 -63142.475 -98438.634 -62710.620   -651.923    343.565   -358.835  16265.108
      2010     288.649  -6139.490  -6087.293 -75299.367 -63439.849 -99165.334 -63292.918   -142.967    117.865   -326.033  16267.044
      2015     290.728  -6139.741  -6087.167 -75649.240 -63800.376 -99910.994 -63236.350    -85.945    112.129   -153.431  16268.980
      2020     276.882  -6137.069  -6086.999 -74948.914 -62957.494 -99289.943 -62599.306   -332.612    -61.417    132.136  16270.916
      2025     286.595  -6138.720  -6086.894 -75659.741 -63708.431 -99568.731 -63702.060   -253.008   -159.881   -176.396  16272.852
      2030     285.346  -6138.339  -6086.739 -75769.958 -63666.913 -99783.891 -63859.070    415.659     45.475    -38.704  16274.788
      2035     290.068  -6139.071  -6086.616 -76156.189 -64153.707 -100283.625 -64031.236    252.305     28.600    421.997  16276.725
      2040     285.347  -6138.069  -6086.469 -76012.286 -64616.212 -100145.456 -63275.188   -330.222   -644.923    253.568  16278.661
      2045     281.604  -6137.251  -6086.327 -75998.306 -64351.627 -100251.676 -63391.614      2.948   -492.788    269.334  16280.597
      2050     289.512  -6138.560  -6086.206 -76623.847 -64445.857 -100762.477 -64663.207    -96.297   -273.908    424.412  16282.533
      2055     283.849  -6137.385  -6086.055 -76421.694 -64752.975 -100299.443 -64212.664     83.872   -220.771    182.101  16284.469
      2060     283.600  -6137.205  -6085.920 -76580.723 -65096.864 -100617.691 -64027.614     44.615     38.367   -193.597  16286.405
      2065     287.576  -6137.788  -6085.784 -76963.220 -64873.144 -101584.578 -64431.939   -938.329   -209.909    -65.774  16288.341
      2070     288.697  -6137.854  -6085.648 -77180.204 -64858.641 -101896.451 -64785.518   -597.156    247.311     47.561  16290.277
      2075     283.679  -6136.800  -6085.500 -77116.860 -64484.627 -101904.414 -64961.539   -325.086    697.732    109.855  16292.213
      2080     285.128  -6136.927  -6085.366 -77412.832 -64729.100 -102245.760 -65263.637   -376.755   -298.282     41.610  16294.149
      2085     285.920  -6136.929  -6085.225 -77448.275 -65091.810 -102031.349 -65221.667   -912.804    428.585    606.411  16296.085
      2090     288.197  -6137.202  -6085.086 -77742.814 -65199.674 -102642.418 -65386.350   -773.956    458.981    846.023  16298.022
      2095     289.322  -6137.274  -6084.954 -78116.996 -65597.740 -103181.901 -65571.348    285.972    167.356    421.088  16299.958
      2100     280.090  -6135.440  -6084.790 -77590.065 -65110.969 -102439.369 -65219.856    440.319    482.486    362.503  16301.894
      2105     290.743  -6137.259  -6084.683 -78394.248 -65749.003 -103061.571 -66372.171    465.935    619.210    399.210  16303.830
      2110     280.375  -6135.218  -6084.517 -78049.123 -65300.646 -102901.382 -65945.341    724.185    242.185    120.099  16305.766
      2115     280.865  -6135.171  -6084.381 -78125.672 -65832.598 -102846.937 -65697.479    321.626    710.305   -140.285  16307.702
      2120     289.462  -6136.602  -6084.257 -78770.745 -66736.541 -103644.612 -65931.084    291.270    478.832    -31.988  16309.638
      2125     278.596  -6134.470  -6084.090 -78326.551 -66129.496 -103748.729 -65101.429    664.309   -233.012   -251.687  16311.574
      2130     287.264  -6135.911  -6083.964 -78974.023 -66600.158 -103919.734 -66402.178    508.727    422.139   -118.809  16313.510
      2135     292.276  -6136.690  -6083.836 -79342.964 -66665.194 -104423.607 -66940.090    147.185     63.224    -75.675  16315.446
      2140     276.725  -6133.698  -6083.657 -78616.139 -65656.168 -104276.314 -65915.934     35.107   -272.093   -564.760  16317.382
      2145     287.377  -6135.516  -6083.549 -79453.233 -66521.879 -104999.912 -66837.908    236.433      0.852   -596.310  16319.319
      2150     288.122  -6135.492  -6083.389 -79612.184 -67047.037 -105096.855 -66692.659    -52.345   -468.944   -239.217  16321.255
      2155     288.276  -6135.388  -6083.258 -79788.037 -67052.955 -105382.021 -66929.134    -98.475   -133.655     96.541  16323.191
      2160     280.611  -6133.841  -6083.097 -79470.428 -66958.707 -104709.004 -66743.573    -25.215   -186.555    434.834  16325.127
      2165     285.452  -6134.589  -6082.969 -79927.049 -67461.548 -104944.172 -67375.426   -153.874   -624.933    660.935  16327.063
      2170     284.828  -6134.329  -6082.822 -80074.327 -67175.260 -105562.546 -67485.175    173.924    -97.854    810.395  16328.999
      2175     285.043  -6134.217  -6082.671 -80162.302 -67497.958 -105785.908 -67203.040    157.864   -192.060    441.410  16330.935
      2180     289.114  -6134.829  -6082.547 -80593.088 -68109.712 -106133.197 -67536.356    124.307     93.325    178.001  16332.871
      2185     280.042  -6133.015  -6082.373 -80224.785 -67409.029 -105921.635 -67343.690    779.334   -818.637    532.614  16334.807
      2190     291.946  -6135.055  -6082.261 -81122.366 -68088.367 -106655.760 -68622.972   1050.652   -655.580    461.418  16336.743
      2195     279.330  -6132.609  -6082.096 -80427.895 -67422.184 -105998.750 -67862.750    751.870    376.868    146.077  16338.679
      2200     275.012  -6131.670  -6081.938 -80370.659 -66942.514 -106355.200 -67814.263    212.218   -639.113   -167.892  16340.616
      2205     294.588  -6135.107  -6081.836 -81746.107 -68344.297 -107921.758 -68972.266     63.499   -616.567     98.807  16342.552
      2210     284.295  -6133.065  -6081.654 -81173.729 -68463.564 -107062.072 -67995.549    557.371    133.903    135.036  16344.488
      2215     286.054  -6133.257  -6081.528 -81512.687 -68670.288 -107581.630 -68286.144    551.143   -390.281    -58.318  16346.424
      2220     281.104  -6132.199  -6081.366 -81351.349 -68107.263 -107349.961 -68596.824    557.012   -213.000   -241.359  16348.360
      2225     288.171  -6133.344  -6081.233 -81913.634 -68428.396 -108204.296 -69108.210    -20.940    298.434    -20.550  16350.296
      2230     288.888  -6133.333  -6081.092 -82119.021 -68968.176 -108400.619 -68988.267   -216.063    114.018      6.337  16352.232
      2235     276.870  -6130.988  -6080.921 -81517.707 -68616.075 -107601.266 -68335.780    129.410    120.250   -151.965  16354.168
      2240     283.594  -6132.078  -6080.794 -82105.459 -69125.092 -108177.256 -69014.029    297.193    140.430    -82.278  16356.104
      2245     284.866  -6132.151  -6080.637 -82292.407 -69274.903 -108501.305 -69101.013    -98.386   -284.634   -512.102  16358.040
      2250     289.396  -6132.832  -6080.499 -82667.573 -69719.317 -109010.263 -69273.139   -214.985   -348.949   -581.053  16359.976
      2255     282.054  -6131.341  -6080.336 -82383.218 -69049.187 -108737.426 -69363.040   -136.314     55.177   -444.367  16361.913
      2260     281.721  -6131.139  -6080.194 -82611.673 -69339.674 -108979.927 -69515.417   -395.897    -11.750   -742.307  16363.849
      2265     284.542  -6131.512  -6080.057 -82915.703 -70066.838 -109295.279 -69384.990     43.691   -403.469   -591.487  16365.785
      2270     282.129  -6130.910  -6079.891 -82944.606 -70208.222 -109325.083 -69300.511    209.883    199.516   -603.042  16367.721
      2275     288.322  -6131.900  -6079.761 -83464.363 -70374.491 -109846.214 -70172.385    -69.261    211.451   -536.839  16369.657
      2280     281.217  -6130.441  -6079.588 -83093.790 -69757.265 -110056.313 -69467.791    336.559   -113.864    -53.622  16371.593
      2285     289.100  -6131.744  -6079.464 -83776.350 -70810.277 -110951.659 -69567.113    356.296   -211.462     -6.661  16373.529
      2290     280.003  -6129.925  -6079.290 -83415.003 -70409.517 -110253.523 -69581.968   -184.597     54.697     53.006  16375.465
      2295     279.830  -6129.752  -6079.149 -83589.185 -70668.586 -110270.927 -69828.043    211.191   -178.035    606.861  16377.401
      2300     285.313  -6130.599  -6079.004 -84101.969 -71146.683 -110672.692 -70486.531    716.348    286.035    866.671  16379.337
      2305     282.949  -6130.012  -6078.845 -83990.639 -70816.262 -110785.098 -70370.556    155.829    497.862    342.508  16381.274
      2310     283.212  -6129.914  -6078.699 -84264.400 -71303.317 -111265.173 -70224.709   -212.635   -154.640   -189.920  16383.210
      2315     283.131  -6129.748  -6078.548 -84372.808 -71317.234 -111545.005 -70256.185    248.066     14.964    -68.905  16385.146
      2320     284.354  -6129.812  -6078.390 -84556.376 -71220.310 -111679.804 -70769.014    342.996    523.841   -251.049  16387.082
      2325     287.518  -6130.250  -6078.257 -84918.715 -71841.899 -111656.333 -71257.913    -72.231    -65.010   -272.126  16389.018
      2330     276.407  -6128.062  -6078.078 -84406.910 -71207.896 -111318.261 -70694.573   -276.633   -105.239    -70.103  16390.954
      2335     284.018  -6129.299  -6077.939 -84930.694 -71598.975 -112140.613 -71052.495    258.858    755.411   -518.464  16392.890
      2340     292.231  -6130.646  -6077.801 -85645.460 -72443.671 -113092.831 -71399.879    489.311    -46.111   -323.013  16394.826
      2345     279.513  -6128.170  -6077.624 -85098.149 -71544.120 -112627.844 -71122.484    180.014   -567.469    121.795  16396.762
      2350     278.547  -6127.844  -6077.473 -85139.918 -71374.134 -112570.775 -71474.845    280.395   -694.416    216.593  16398.698
      2355     288.836  -6129.564  -6077.332 -85897.996 -72451.334 -113638.042 -71604.613    333.170   -479.253    111.572  16400.634
      2360     287.866  -6129.230  -6077.173 -86010.478 -72390.723 -113880.680 -71760.032   -144.138   -818.061    -70.118  16402.571
      2365     281.774  -6127.969  -6077.015 -85787.669 -71880.374 -113826.062 -71656.573   -278.832   -996.030    -18.640  16404.507
      2370     281.942  -6127.847  -6076.862 -86041.634 -71694.680 -114267.556 -72162.667    350.525   -495.129     56.814  16406.443
      2375     284.132  -6128.092  -6076.711 -86207.654 -71827.177 -114327.930 -72467.855    101.517   -419.823    208.865  16408.379
      2380     284.592  -6128.007  -6076.543 -86326.725 -72300.855 -114280.232 -72399.088   -511.118   -245.545    -63.531  16410.315
      2385     288.577  -6128.594  -6076.409 -86688.210 -72767.581 -114506.754 -72790.295     15.988   -467.814   -111.740  16412.251
      2390     275.538  -6126.049  -6076.222 -86005.082 -71936.559 -114000.925 -72077.760    147.117   -164.250    419.451  16414.187
      2395     283.548  -6127.368  -6076.093 -86835.853 -72464.782 -114974.242 -73068.536   -256.027   -245.618    647.510  16416.123
      2400     281.167  -6126.769  -6075.924 -86800.445 -72866.420 -114590.399 -72944.516   -288.466   -861.108    177.806  16418.059
      2405     282.704  -6126.893  -6075.770 -86956.717 -73241.463 -114668.191 -72960.496     15.354   -469.623    -26.357  16419.995
      2410     288.389  -6127.776  -6075.625 -87481.052 -73369.527 -115515.485 -73558.144   -326.671   -509.744    -55.107  16421.931
      2415     279.562  -6126.000  -6075.445 -87026.565 -72513.514 -115417.364 -73148.818    -99.850   -618.353   -168.967  16423.868
      2420     287.881  -6127.367  -6075.308 -87762.601 -73433.129 -116106.167 -73748.507   -158.988   -953.353     -6.020  16425.804
      2425     283.492  -6126.409  -6075.144 -87711.382 -73719.731 -115740.350 -73674.064   -400.316   -561.933    107.205  16427.740
      2430     275.185  -6124.735  -6074.972 -87308.765 -73456.664 -115623.576 -72846.053   -182.405   -130.783     73.435  16429.676
      2435     289.856  -6127.256  -6074.840 -88328.885 -74272.725 -116974.475 -73739.455    163.153    430.417    404.273  16431.612
      2440     286.174  -6126.412  -6074.662 -88085.920 -73999.433 -116782.616 -73475.710    224.431    598.765    634.595  16433.548
      2445     283.409  -6125.760  -6074.510 -88141.951 -74055.471 -116971.094 -73399.287    126.322    821.862    515.743  16435.484
      2450     279.990  -6124.977  -6074.345 -88163.736 -74000.742 -116726.751 -73763.716    457.163    949.667     90.704  16437.420
      2455     280.891  -6124.985  -6074.190 -88281.061 -74268.023 -116728.092 -73847.069    756.435   1001.011   -331.599  16439.356
      2460     281.544  -6124.943  -6074.030 -88485.540 -73882.304 -117324.519 -74249.799    506.226    527.286   -237.890  16441.292
      2465     280.002  -6124.506  -6073.871 -88620.078 -73672.255 -117860.968 -74327.012    566.560    198.179    -66.241  16443.228
      2470     282.784  -6124.846  -6073.709 -88900.202 -74520.075 -117899.386 -74281.147    749.059    175.637   -246.413  16445.165
      2475     287.664  -6125.578  -6073.558 -89278.875 -75232.909 -117851.324 -74752.392    442.340    133.062    -27.439  16447.101
      2480     282.574  -6124.484  -6073.385 -89204.758 -74781.667 -118231.610 -74600.999    314.233   -303.265    -48.847  16449.037
      2485     281.428  -6124.116  -6073.224 -89248.721 -74792.798 -118577.706 -74375.660    380.399    -86.507    -28.929  16450.973
      2490     284.844  -6124.574  -6073.064 -89516.641 -74998.202 -118781.056 -74770.665    -58.104   -261.491    -36.543  16452.909
      2495     285.000  -6124.441  -6072.903 -89749.773 -75067.705 -119034.950 -75146.665   -127.584    353.508    320.059  16454.845
      2500     278.131  -6123.032  -6072.736 -89496.238 -74631.616 -118828.964 -75028.133    124.800    305.102    -98.763  16456.781
      2505     278.619  -6122.957  -6072.573 -89666.672 -75027.807 -119205.677 -74766.530   -142.748    538.801   -556.470  16458.717
      2510     288.386  -6124.569  -6072.419 -90374.123 -75944.853 -120117.546 -75059.971   -116.448    248.540    -85.897  16460.653
      2515     285.085  -6123.803  -6072.249 -90178.535 -75468.218 -119985.128 -75082.257   -266.420    359.605     81.836  16462.589
      2520     280.075  -6122.724  -6072.076 -89993.764 -75330.891 -119631.670 -75018.732    127.269    530.209   -114.792  16464.525
      2525     283.167  -6123.130  -6071.923 -90437.000 -76088.688 -119983.443 -75238.869    198.277    -95.026   -107.718  16466.462
      2530     280.828  -6122.540  -6071.757 -90440.546 -75605.730 -120021.387 -75694.522    148.589   -119.393    132.620  16468.398
      2535     280.438  -6122.302  -6071.589 -90573.003 -75769.266 -120213.781 -75735.962    440.083   -113.929    268.219  16470.334
      2540     281.224  -6122.285  -6071.430 -90708.312 -75950.264 -120224.609 -75950.064    736.627   -388.126    408.004  16472.270
      2545     283.486  -6122.526  -6071.262 -91062.858 -76050.037 -120857.356 -76281.180    862.781     64.651    554.152  16474.206
      2550     286.538  -6122.923  -6071.107 -91400.998 -76436.699 -121730.520 -76035.775    818.104   -301.978     25.613  16476.142
      2555     280.576  -6121.662  -6070.924 -91148.816 -76153.344 -121118.891 -76174.213   1156.729    -32.140   -106.950  16478.078
      2560     282.691  -6121.888  -6070.768 -91397.175 -75963.697 -121322.444 -76905.382   1093.219    272.037    420.751  16480.014
      2565     282.928  -6121.760  -6070.596 -91628.675 -75831.111 -121936.818 -77118.097    934.149    -78.731    160.116  16481.950
      2570     285.392  -6122.045  -6070.436 -91872.485 -76597.598 -122088.737 -76931.122    495.003   -322.814    -89.763  16483.886
      2575     283.197  -6121.481  -6070.269 -91867.427 -77096.832 -121859.998 -76645.451    417.093   -484.308   -218.434  16485.822
      2580     278.387  -6120.437  -6070.095 -91856.264 -76909.194 -122106.950 -76552.648    516.591     13.661    248.082  16487.759
      2585     278.236  -6120.242  -6069.927 -91891.736 -76712.792 -122139.361 -76823.056    343.326   -224.121    739.879  16489.695
      2590     282.568  -6120.865  -6069.767 -92284.572 -77077.380 -122464.589 -77311.747     78.762     38.993   -124.817  16491.631
      2595     279.633  -6120.158  -6069.590 -92349.006 -77058.880 -122770.634 -77217.503    249.735    -33.749     48.857  16493.567
      2600     282.896  -6120.583  -6069.425 -92545.323 -77399.994 -123465.387 -76770.590    462.955   -150.842    840.964  16495.503
      2605     287.505  -6121.254  -6069.263 -92923.936 -77779.345 -123697.630 -77294.835    504.342    351.610    497.341  16497.439
      2610     279.195  -6119.562  -6069.074 -92547.822 -77257.920 -122951.677 -77433.870    478.614     47.994    262.938  16499.375
      2615     287.107  -6120.844  -6068.925 -93184.431 -77732.404 -123504.835 -78316.054    243.641   -109.908    376.258  16501.311
      2620     285.282  -6120.342  -6068.753 -93340.451 -77854.932 -123720.671 -78445.749    373.091     52.408    361.182  16503.247
      2625     274.998  -6118.293  -6068.564 -92837.167 -77290.024 -123311.431 -77910.046    835.989   -202.025    568.215  16505.183
      2630     283.790  -6119.735  -6068.416 -93492.752 -78402.688 -123926.790 -78148.778    384.196   -260.457    813.766  16507.119
      2635     283.672  -6119.535  -6068.237 -93532.201 -78809.069 -123604.577 -78182.958     84.079   -502.985    112.962  16509.056
      2640     280.658  -6118.818  -6068.065 -93429.423 -78098.548 -123761.637 -78428.085   -289.009     32.677   -388.659  16510.992
      2645     282.361  -6118.958  -6067.898 -93769.029 -78032.304 -124873.592 -78401.191   -293.581    -12.915   -192.260  16512.928
      2650     281.896  -6118.706  -6067.729 -93912.049 -78239.509 -125472.435 -78024.203    225.126   -521.466    139.317  16514.864
      2655     278.272  -6117.868  -6067.547 -93893.882 -78533.482 -125133.600 -78014.564     64.631   -105.314    -17.676  16516.800
      2660     282.228  -6118.421  -6067.384 -94257.963 -78777.751 -125248.847 -78747.290    -23.784     -1.320   -152.275  16518.736
      2665     282.254  -6118.252  -6067.210 -94365.646 -79031.365 -125196.539 -78869.035     15.712   -164.411     53.496  16520.672
      2670     280.328  -6117.727  -6067.034 -94439.244 -78891.930 -125263.927 -79161.874   -270.883    306.692    151.564  16522.608
      2675     281.525  -6117.773  -6066.863 -94605.098 -78875.278 -125957.620 -78982.398   -622.090    122.199    -84.806  16524.544
      2680     284.165  -6118.077  -6066.690 -94848.216 -79221.083 -126285.735 -79037.830   -187.937    144.451   -360.965  16526.480
      2685     284.415  -6117.950  -6066.517 -94984.337 -79144.579 -126295.005 -79513.427     22.799    531.414   -402.783  16528.416
      2690     281.766  -6117.294  -6066.341 -95007.283 -79064.406 -126358.977 -79598.467     86.557   -223.811   -936.825  16530.353
      2695     277.640  -6116.375  -6066.168 -94984.463 -79283.036 -126359.738 -79310.615    -95.747   -357.649   -564.235  16532.289
      2700     275.062  -6115.732  -6065.991 -94900.258 -79171.790 -126306.559 -79222.425   -503.940   -237.152    175.020  16534.225
      2705     282.826  -6116.961  -6065.816 -95532.363 -79628.841 -126986.505 -79981.742   -307.691    189.673   -296.889  16536.161
      2710     290.973  -6118.277  -6065.659 -96121.444 -80346.946 -127895.690 -80121.696     11.796    -57.213   -252.852  16538.097
      2715     278.310  -6115.783  -6065.455 -95512.475 -79830.631 -127299.685 -79407.111    333.605   -647.635    175.310  16540.033
      2720     281.513  -6116.206  -6065.298 -95823.251 -80432.565 -127461.213 -79575.976    315.238    179.552    255.310  16541.969
      2725     279.249  -6115.614  -6065.116 -95782.380 -79946.834 -127024.904 -80375.402    411.859    413.499    -50.328  16543.905
      2730     279.439  -6115.477  -6064.945 -95949.123 -80101.707 -127098.483 -80647.179    616.430   -427.611    238.557  16545.841
      2735     280.401  -6115.470  -6064.764 -96191.710 -80633.034 -128005.707 -79936.389    132.102   -151.579    115.931  16547.777
      2740     285.054  -6116.146  -6064.598 -96575.468 -80678.897 -128578.023 -80469.483    126.438   -246.681   -257.017  16549.713
      2745     280.369  -6115.107  -6064.407 -96411.990 -80166.026 -128233.005 -80836.940    263.338   -641.239    -49.888  16551.650
      2750     283.209  -6115.455  -6064.241 -96755.716 -80361.377 -128889.791 -81015.979    156.153   -348.485     37.679  16553.586
      2755     281.707  -6114.996  -6064.054 -96716.904 -80747.556 -128800.224 -80602.932    -98.828   -162.304   -183.710  16555.522
      2760     283.828  -6115.217  -6063.891 -96964.164 -80947.130 -128795.963 -81149.398   -231.494     31.877   -281.623  16557.458
      2765     277.295  -6113.847  -6063.703 -96856.295 -80686.148 -129298.423 -80584.315   -360.052    -72.925   -168.465  16559.394
      2770     272.653  -6112.826  -6063.521 -96725.357 -80605.407 -129378.806 -80191.858   -282.732   -175.134    114.637  16561.330
      2775     286.246  -6115.118  -6063.355 -97626.923 -81625.481 -129951.585 -81303.702    514.059    -32.764    277.678  16563.266
      2780     288.268  -6115.304  -6063.176 -97855.076 -81939.785 -130057.737 -81567.708    628.225    130.344    445.135  16565.202
      2785     277.516  -6113.171  -6062.986 -97314.279 -81375.064 -129434.194 -81133.579    117.404   -275.101    393.044  16567.138
      2790     276.739  -6112.852  -6062.808 -97438.518 -81223.063 -129729.530 -81362.960    199.558   -317.067    370.473  16569.074
      2795     281.371  -6113.510  -6062.629 -97819.020 -81797.095 -130386.470 -81273.494    395.352    119.670    -26.796  16571.011
      2800     284.021  -6113.816  -6062.455 -98078.326 -82220.706 -130890.664 -81123.607    192.861    274.288   -368.934  16572.947
      2805     283.494  -6113.528  -6062.263 -98240.291 -81990.359 -131155.397 -81575.117     81.804     59.572   -494.382  16574.883
      2810     285.582  -6113.744  -6062.101 -98427.074 -81978.696 -131008.519 -82294.006    280.566    232.589   -244.854  16576.819
      2815     273.854  -6111.415  -6061.893 -97870.221 -81250.281 -130470.457 -81889.926     68.110    211.454   -192.052  16578.755
      2820     280.942  -6112.533  -6061.729 -98511.006 -82306.387 -131353.842 -81872.789    100.274    169.489   -326.100  16580.691
      2825     283.884  -6112.881  -6061.545 -98774.465 -82936.900 -131500.513 -81885.981    592.727    149.122   -193.155  16582.627
      2830     281.547  -6112.275  -6061.362 -98679.818 -82596.306 -131078.644 -82364.504    154.641     13.093   -239.373  16584.563
      2835     277.756  -6111.407  -6061.179 -98698.609 -82123.003 -131327.109 -82645.716     38.544     -0.944   -469.872  16586.499
      2840     278.742  -6111.407  -6061.001 -99020.625 -82600.805 -131756.988 -82704.082     28.977   -169.577   -555.045  16588.435
      2845     281.792  -6111.777  -6060.820 -99334.698 -82931.781 -132123.419 -82948.893     60.099      7.523   -563.947  16590.371
      2850     281.385  -6111.521  -6060.637 -99349.534 -82803.654 -132250.588 -82994.361   -182.030   -137.603    -60.376  16592.308
      2855     278.607  -6110.825  -6060.443 -99287.855 -82681.215 -132330.909 -82851.440   -596.004    109.810    -21.100  16594.244
      2860     286.460  -6112.076  -6060.274 -99865.948 -83288.317 -133156.425 -83153.102   -112.709    466.682   -250.215  16596.180
      2865     284.374  -6111.512  -6060.088 -99974.429 -83582.700 -133286.662 -83053.925      5.611     58.859     77.453  16598.116
      2870     274.266  -6109.485  -6059.888 -99485.391 -82671.843 -132723.478 -83060.852   -229.785    708.549   -161.187  16600.052
      2875     281.417  -6110.609  -6059.719 -99983.573 -83094.697 -133040.794 -83815.228   -145.561    751.331    -88.113  16601.988
      2880     286.000  -6111.257  -6059.539 -100450.258 -83775.045 -133661.041 -83914.689    121.343    780.020     72.732  16603.924
[...]
     49305     307.161  -6080.877  -6025.332  -2942.419  -3526.485  -1417.618  -3883.153     89.931  -1605.293     52.596  34580.537
     49310     299.778  -6079.516  -6025.306  -3014.937  -3306.113  -1758.556  -3980.141    342.732  -1790.091    160.888  34582.473
     49315     299.952  -6079.534  -6025.292  -3159.534  -3606.372  -2004.289  -3867.941    743.128  -1770.850    103.449  34584.409
     49320     307.971  -6080.984  -6025.292  -3444.059  -3804.005  -2555.057  -3973.115    836.668  -1784.130   -356.413  34586.346
     49325     303.220  -6080.097  -6025.264  -3323.383  -3495.010  -2805.336  -3669.803    739.125  -1591.036   -253.761  34588.282
     49330     305.214  -6080.446  -6025.253  -3141.085  -3481.844  -2361.877  -3579.534    700.949  -1717.255   -130.789  34590.218
     49335     302.275  -6079.905  -6025.243  -2718.768  -3411.913  -1246.158  -3498.233    598.919  -1620.944    -82.549  34592.154
     49340     299.670  -6079.410  -6025.219  -2482.933  -3496.546   -585.878  -3366.375    627.253  -1357.730    142.742  34594.090
     49345     309.659  -6081.221  -6025.224  -2720.779  -3939.661   -729.482  -3493.196    478.086  -1249.303    510.167  34596.026
     49350     303.880  -6080.148  -6025.196  -2558.300  -3901.225   -333.234  -3440.442    529.129  -1369.872    692.642  34597.962
     49355     308.535  -6080.995  -6025.201  -2561.960  -4137.997    173.483  -3721.368    539.287  -1157.801   1017.053  34599.898
     49360     304.843  -6080.301  -6025.175  -2481.183  -4203.033    186.602  -3427.118    345.519  -1203.913   1263.590  34601.834
     49365     306.357  -6080.586  -6025.185  -2595.945  -3849.460   -623.435  -3314.938    407.947  -1200.846   1247.960  34603.770
     49370     299.275  -6079.268  -6025.149  -2338.540  -3070.668   -767.479  -3177.473    665.032  -1443.998   1313.885  34605.706
     49375     307.402  -6080.747  -6025.158  -2292.493  -2955.842   -571.806  -3349.831    664.157  -1540.187   1028.166  34607.643
     49380     306.629  -6080.601  -6025.152  -2010.924  -2568.319   -573.451  -2891.001    529.062  -1125.784    738.919  34609.579
     49385     296.374  -6078.702  -6025.108  -1743.937  -2264.969   -639.934  -2326.909    493.831  -1345.727    938.080  34611.515
     49390     310.165  -6081.224  -6025.135  -2346.564  -2934.944  -1268.067  -2836.679    590.804  -1436.975    851.120  34613.451
     49395     304.619  -6080.177  -6025.091  -2278.043  -2916.277  -1157.164  -2760.688    742.122  -1290.203    658.082  34615.387
     49400     309.719  -6081.108  -6025.100  -2139.566  -3048.406   -120.324  -3249.969    769.978  -1134.515    401.205  34617.323
     49405     303.627  -6079.984  -6025.077  -1650.470  -2668.941    692.844  -2975.313    982.661  -1219.461    352.835  34619.259
     49410     302.800  -6079.822  -6025.065  -1310.780  -2564.056   1094.813  -2463.096   1288.630  -1143.311    457.228  34621.195
     49415     311.781  -6081.455  -6025.075  -1271.482  -2703.225   1762.561  -2873.781   1160.303  -1112.213    354.871  34623.131
     49420     304.870  -6080.184  -6025.053   -826.617  -2236.262   2215.877  -2459.466    894.015  -1115.864    242.455  34625.067
     49425     302.838  -6079.811  -6025.048   -526.442  -1842.203   2320.389  -2057.511   1027.736   -705.852    594.569  34627.003
     49430     310.236  -6081.151  -6025.049   -541.649  -1397.958   2152.476  -2379.463   1429.560   -627.406    845.719  34628.940
     49435     310.813  -6081.245  -6025.039   -790.033  -1780.936   2054.954  -2644.116   1341.577   -615.619    822.468  34630.876
     49440     301.451  -6079.532  -6025.019   -936.068  -2356.629   1867.325  -2318.898   1149.166   -641.221    874.845  34632.812
     49445     304.544  -6080.093  -6025.021  -1198.792  -2452.301   1371.260  -2515.333   1154.898   -882.558    796.595  34634.748
     49450     307.553  -6080.628  -6025.012  -1107.248  -2401.247   1428.874  -2349.372   1025.715   -784.866    997.557  34636.684
     49455     308.950  -6080.871  -6025.002  -1117.435  -2145.218   1045.378  -2252.466   1136.015   -973.273    836.959  34638.620
     49460     307.495  -6080.599  -6024.993  -1239.785  -2270.319   1082.912  -2531.948   1111.426  -1175.528    684.590  34640.556
     49465     303.853  -6079.927  -6024.980  -1091.622  -2113.918   1332.283  -2493.231    787.401   -933.990    615.869  34642.492
     49470     308.902  -6080.836  -6024.976   -989.698  -2310.065   1620.017  -2279.046    325.699  -1189.527    610.050  34644.428
     49475     310.803  -6081.190  -6024.986   -827.763  -2339.891   1915.751  -2059.148    279.151  -1334.952    509.391  34646.364
     49480     296.787  -6078.609  -6024.940   -623.523  -1909.546   1838.441  -1799.465    201.372   -905.607    511.046  34648.301
     49485     307.503  -6080.579  -6024.972  -1095.871  -2362.394   1075.231  -2000.450    -24.819   -857.190    307.005  34650.237
     49490     309.042  -6080.833  -6024.947  -1166.058  -2724.172   1140.822  -1914.824    254.057   -868.194     47.371  34652.173
     49495     307.804  -6080.598  -6024.936  -1040.963  -2684.641   1272.860  -1711.106    347.433   -822.585    158.069  34654.109
     49500     309.230  -6080.864  -6024.944  -1021.380  -2519.719    987.573  -1531.993    525.816   -539.951    418.279  34656.045
     49505     302.752  -6079.657  -6024.909   -946.552  -2149.551   1047.847  -1737.953    810.456   -171.588    541.822  34657.981
     49510     305.773  -6080.215  -6024.921  -1044.372  -2139.517   1209.157  -2202.757    805.630   -347.724    451.529  34659.917
     49515     301.725  -6079.455  -6024.892   -971.926  -2333.389   1440.250  -2022.639    779.499   -497.442    603.602  34661.853
     49520     309.837  -6080.937  -6024.907  -1203.253  -2330.202   1107.907  -2387.464    614.499   -692.438    582.502  34663.789
     49525     309.222  -6080.806  -6024.888  -1250.777  -1857.012    633.159  -2528.479    351.859   -587.180    516.329  34665.725
     49530     305.623  -6080.151  -6024.883  -1370.548  -1748.115    527.605  -2891.135    197.115   -620.123    640.119  34667.661
     49535     302.076  -6079.487  -6024.861  -1452.153  -1775.107    614.991  -3196.342    103.005   -771.120    632.409  34669.598
     49540     310.902  -6081.089  -6024.867  -1660.364  -2367.238    453.257  -3067.113   -394.998   -698.707    352.899  34671.534
     49545     306.266  -6080.239  -6024.856  -1462.534  -2310.372    506.906  -2584.135   -337.554   -798.705    236.266  34673.470
     49550     301.725  -6079.401  -6024.838  -1254.031  -2231.342    927.251  -2458.004    103.722   -788.282     81.858  34675.406
     49555     309.031  -6080.726  -6024.843  -1283.898  -2420.171    928.084  -2359.608    207.221   -903.464   -151.379  34677.342
     49560     312.966  -6081.431  -6024.835  -1461.974  -2449.288    687.257  -2623.890    376.485  -1104.882   -312.276  34679.278
     49565     305.824  -6080.120  -6024.817  -1553.061  -2564.532    258.154  -2352.806    409.826  -1129.417   -175.371  34681.214
     49570     302.125  -6079.443  -6024.808  -1726.907  -3030.615    -22.583  -2127.522    235.576  -1141.388   -342.880  34683.150
     49575     304.436  -6079.856  -6024.804  -2101.994  -3599.263   -250.017  -2456.702      3.808  -1241.419   -418.946  34685.086
     49580     302.685  -6079.516  -6024.780  -2187.833  -3673.775   -265.675  -2624.049     45.961  -1670.814   -330.044  34687.022
     49585     312.159  -6081.247  -6024.798  -2498.126  -3800.457   -820.777  -2873.143     38.553  -1714.294   -352.905  34688.958
     49590     305.207  -6079.957  -6024.765  -2391.211  -3609.827   -816.857  -2746.949    -32.314  -1438.789    -62.869  34690.895
     49595     306.599  -6080.215  -6024.771  -2558.683  -3892.192   -956.307  -2827.551   -214.390  -1547.271   -139.025  34692.831
     49600     302.384  -6079.425  -6024.744  -2404.686  -3390.795   -928.188  -2895.075   -179.209  -1439.666   -172.012  34694.767
     49605     311.137  -6081.020  -6024.755  -2428.245  -3091.430  -1048.832  -3144.473    -62.790  -1251.181    -59.590  34696.703
     49610     302.656  -6079.454  -6024.723  -2071.576  -2609.751   -667.852  -2937.124   -182.845  -1324.319     36.357  34698.639
     49615     308.096  -6080.450  -6024.735  -2381.136  -2944.866   -816.507  -3382.035   -400.657  -1258.917    279.389  34700.575
     49620     309.432  -6080.679  -6024.723  -2586.641  -3022.737  -1124.292  -3612.893   -599.427  -1361.017    333.232  34702.511
     49625     303.709  -6079.622  -6024.700  -2486.646  -3153.171   -764.587  -3542.181   -336.290  -1416.071    474.972  34704.447
     49630     308.073  -6080.420  -6024.710  -2595.838  -3354.637   -757.357  -3675.519   -642.408  -1553.505    331.686  34706.383
     49635     305.182  -6079.864  -6024.677  -2504.187  -3279.256   -820.843  -3412.461  -1093.491  -1698.642    302.334  34708.319
     49640     310.477  -6080.839  -6024.693  -2788.255  -3775.837  -1176.035  -3412.894  -1036.837  -1697.730    151.230  34710.255
     49645     300.194  -6078.941  -6024.655  -2624.091  -3430.951   -957.646  -3483.676   -784.652  -1874.615    -44.728  34712.192
     49650     309.206  -6080.582  -6024.666  -2923.063  -3959.642  -1315.220  -3494.327   -428.171  -1865.883    -78.494  34714.128
     49655     304.854  -6079.779  -6024.650  -2808.874  -3883.506  -1043.653  -3499.464    -84.313  -1789.708    -81.584  34716.064
     49660     301.451  -6079.149  -6024.636  -2819.505  -4339.908   -590.747  -3527.861    269.158  -1504.921   -123.828  34718.000
     49665     304.493  -6079.693  -6024.630  -3053.531  -4528.966  -1341.365  -3290.262    103.480  -1240.806    -88.439  34719.936
     49670     306.063  -6079.975  -6024.628  -3206.902  -4057.256  -1672.033  -3891.418   -297.154  -1180.400    115.961  34721.872
     49675     303.721  -6079.539  -6024.615  -3036.055  -4127.190  -1365.265  -3615.710   -726.356  -1140.348    -20.202  34723.808
     49680     308.832  -6080.446  -6024.598  -3013.413  -4077.925  -1660.534  -3301.780  -1164.294  -1464.510   -218.064  34725.744
     49685     313.806  -6081.358  -6024.611  -3082.602  -3921.140  -1427.813  -3898.854  -1381.897  -1639.040   -388.182  34727.680
     49690     293.437  -6077.622  -6024.558  -2635.721  -3117.710   -865.561  -3923.891  -1228.659  -1578.062   -401.294  34729.616
     49695     308.470  -6080.373  -6024.591  -2984.726  -3272.582  -1239.809  -4441.786  -1135.019  -1669.114   -579.985  34731.552
     49700     310.501  -6080.713  -6024.563  -2671.703  -3139.684   -784.594  -4090.830   -782.726  -1340.538  -1187.854  34733.489
     49705     311.851  -6080.960  -6024.566  -2438.086  -2741.837   -783.874  -3788.546   -664.828  -1446.090  -1231.115  34735.425
     49710     304.977  -6079.691  -6024.541  -2449.688  -2571.113  -1015.727  -3762.223   -548.503  -1617.683   -946.106  34737.361
     49715     304.415  -6079.593  -6024.544  -2846.764  -2747.543  -1549.235  -4243.513   -628.872  -1276.480  -1164.803  34739.297
     49720     302.359  -6079.207  -6024.530  -3093.728  -3206.694  -1906.090  -4168.399   -651.037  -1313.417  -1078.295  34741.233
     49725     306.486  -6079.935  -6024.511  -3104.353  -3131.811  -2433.454  -3747.793   -746.704  -1038.825   -795.267  34743.169
     49730     314.607  -6081.416  -6024.524  -3216.625  -3518.854  -2431.965  -3699.055   -733.618   -976.202   -613.935  34745.105
     49735     301.333  -6078.983  -6024.491  -2977.220  -3478.448  -2004.003  -3449.209  -1101.734  -1111.406   -635.846  34747.041
     49740     303.854  -6079.436  -6024.489  -3080.133  -3909.440  -1524.300  -3806.658  -1195.514  -1206.509   -896.087  34748.977
     49745     303.168  -6079.310  -6024.487  -2748.944  -3917.081   -861.544  -3468.207  -1111.160  -1125.210   -799.035  34750.913
     49750     302.384  -6079.154  -6024.473  -2252.535  -3464.818   -457.672  -2835.115  -1244.438  -1140.801   -631.373  34752.849
     49755     305.594  -6079.729  -6024.467  -1954.057  -3093.237   -150.980  -2617.955   -932.152  -1030.921   -505.203  34754.786
     49760     310.639  -6080.647  -6024.473  -1892.899  -3382.535    131.666  -2427.827   -891.002   -861.851   -494.946  34756.722
     49765     309.755  -6080.472  -6024.457  -1891.262  -3410.827    -14.671  -2248.288  -1107.398   -820.379   -636.056  34758.658
     49770     306.048  -6079.802  -6024.458  -1953.315  -3192.932   -334.864  -2332.150  -1454.008   -777.485   -692.214  34760.594
     49775     304.966  -6079.586  -6024.437  -1957.885  -3472.321     89.670  -2491.004  -1600.671   -608.113   -725.201  34762.530
     49780     313.304  -6081.106  -6024.449  -2003.968  -3730.567    225.728  -2507.065  -1023.135   -609.011   -821.742  34764.466
     49785     308.375  -6080.197  -6024.433  -1666.681  -3237.653    625.646  -2388.035   -654.583   -787.852   -737.611  34766.402
     49790     306.619  -6079.865  -6024.418  -1457.436  -2898.094   1270.911  -2745.125   -571.223  -1176.360   -538.188  34768.338
     49795     314.358  -6081.292  -6024.445  -1521.200  -2827.921   1554.793  -3290.473   -547.091  -1278.527   -502.106  34770.274
     49800     300.643  -6078.762  -6024.395  -1009.828  -2082.694   2080.842  -3027.631   -658.047  -1094.683   -556.151  34772.210
     49805     309.598  -6080.420  -6024.434  -1216.178  -2004.026   1539.872  -3184.381   -528.007  -1214.872   -578.493  34774.146
     49810     302.410  -6079.079  -6024.393  -1067.567  -1687.656   1623.046  -3138.091   -390.330  -1256.258   -276.968  34776.083
     49815     308.865  -6080.271  -6024.417  -1300.402  -1633.652   1280.214  -3547.769   -401.495  -1179.839   -114.991  34778.019
     49820     304.028  -6079.370  -6024.391  -1153.062  -1657.230   1400.010  -3201.965   -537.684  -1085.690   -282.874  34779.955
     49825     311.189  -6080.672  -6024.398  -1325.905  -2282.245   1150.835  -2846.305   -609.133   -822.156   -409.937  34781.891
     49830     312.449  -6080.899  -6024.397  -1464.801  -2395.622    585.973  -2584.754   -634.273   -809.524   -536.990  34783.827
     49835     300.020  -6078.629  -6024.375  -1333.621  -2381.905    797.685  -2416.642   -728.981   -916.439   -839.928  34785.763
     49840     302.465  -6079.072  -6024.376  -1341.354  -2384.037    867.962  -2507.986   -576.362  -1007.561   -483.595  34787.699
     49845     316.147  -6081.559  -6024.389  -1426.225  -2460.933   1101.518  -2919.259    -95.925  -1232.791   -212.861  34789.635
     49850     312.585  -6080.902  -6024.376   -992.881  -2279.108   1845.338  -2544.874   -153.550  -1333.299   -232.264  34791.571
     49855     305.518  -6079.613  -6024.365   -708.842  -1924.322   1910.496  -2112.700    -73.042  -1253.858     66.371  34793.507
     49860     310.948  -6080.615  -6024.385  -1010.050  -2436.847   1623.223  -2216.525    164.076   -963.621    100.603  34795.443
     49865     305.926  -6079.672  -6024.349  -1022.775  -2450.978   1115.256  -1732.603     79.809   -664.632    107.579  34797.380
     49870     312.743  -6080.931  -6024.376  -1225.712  -2766.577    849.875  -1760.434   -231.448   -763.421   -129.338  34799.316
     49875     302.336  -6079.022  -6024.349   -941.941  -2516.353   1099.272  -1408.742   -317.031  -1019.241    -50.273  34801.252
     49880     305.472  -6079.593  -6024.353  -1213.573  -2909.413    833.056  -1564.362   -263.529  -1132.223    -13.711  34803.188
     49885     309.195  -6080.269  -6024.356  -1346.880  -2715.324    428.954  -1754.270    -18.962  -1434.500    175.921  34805.124
     49890     301.981  -6078.949  -6024.340  -1067.978  -2065.243    663.655  -1802.347   -120.142  -1577.382    259.596  34807.060
     49895     303.918  -6079.293  -6024.334   -903.493  -1978.841    908.513  -1640.152   -381.829  -1496.448    189.817  34808.996
     49900     316.537  -6081.586  -6024.345  -1043.506  -1837.199    824.220  -2117.538   -324.564  -1569.703    126.254  34810.932
     49905     314.793  -6081.271  -6024.346  -1010.673  -1901.931   1484.452  -2614.538   -168.220  -1594.789    -62.849  34812.868
     49910     302.360  -6078.994  -6024.317   -783.360  -2137.844   2105.520  -2317.756   -245.398  -1430.156   -422.554  34814.804
     49915     312.018  -6080.769  -6024.345  -1006.691  -2398.458   1573.149  -2194.763     34.740  -1258.212   -269.068  34816.740
     49920     304.094  -6079.307  -6024.316   -821.811  -2096.046   1809.277  -2178.663    -98.442  -1442.603   -368.525  34818.677
     49925     306.991  -6079.837  -6024.323  -1024.490  -2386.443   1687.807  -2374.835     13.271  -1579.523   -397.842  34820.613
     49930     316.920  -6081.644  -6024.333  -1461.342  -2676.159   1105.845  -2813.711     26.729  -1485.212   -155.221  34822.549
     49935     312.295  -6080.785  -6024.311  -1673.657  -2981.016    708.526  -2748.482     97.230  -1423.276   -300.229  34824.485
     49940     303.936  -6079.278  -6024.315  -1594.575  -2870.529    480.870  -2394.066    314.658  -1243.539   -166.932  34826.421
     49945     297.315  -6078.059  -6024.294  -1494.756  -2734.744    420.912  -2170.437    247.975  -1175.789   -513.665  34828.357
     49950     306.725  -6079.765  -6024.298  -1793.814  -3010.980    -69.020  -2301.442    170.570  -1393.097   -587.749  34830.293
     49955     317.000  -6081.647  -6024.322  -2138.567  -3477.330    -73.546  -2864.826    292.171  -1335.979   -446.628  34832.229
     49960     305.194  -6079.464  -6024.275  -1872.461  -3577.283    502.429  -2542.528    373.534  -1227.237   -680.719  34834.165
     49965     308.578  -6080.108  -6024.307  -1935.570  -3826.363    651.559  -2631.907    179.723  -1173.562   -401.472  34836.101
     49970     296.420  -6077.877  -6024.274  -1740.743  -3513.463    974.046  -2682.813    415.129  -1328.635   -219.111  34838.038
     49975     306.031  -6079.627  -6024.286  -2395.709  -3888.258    271.929  -3570.797    371.638  -1349.942    148.039  34839.974
     49980     319.640  -6082.096  -6024.294  -3169.195  -4336.344  -1060.796  -4110.445     82.015  -1279.359    462.616  34841.910
     49985     309.067  -6080.168  -6024.278  -3224.224  -3962.251  -1570.238  -4140.184    277.770  -1371.730    498.933  34843.846
     49990     296.636  -6077.890  -6024.247  -2963.655  -3288.029  -1836.867  -3766.068    457.850  -1652.143    791.171  34845.782
     49995     312.235  -6080.733  -6024.270  -3188.031  -3355.167  -2271.447  -3937.480    619.630  -1764.406    625.741  34847.718
     50000     314.792  -6081.204  -6024.278  -3235.443  -3406.296  -2182.577  -4117.458    366.327  -1573.903    583.556  34849.654
Loop time of 103.442 on 1 procs for 50000 steps with 1400 atoms

Performance: 208.813 ns/day, 0.115 hours/ns, 483.364 timesteps/s
28.7% CPU use with 1 MPI tasks x 1 OpenMP threads

MPI task timing breakdown:
Section |  min time  |  avg time  |  max time  |%varavg| %total
---------------------------------------------------------------
Pair    | 77.95      | 77.95      | 77.95      |   0.0 | 75.36
Neigh   | 17.971     | 17.971     | 17.971     |   0.0 | 17.37
Comm    | 1.0512     | 1.0512     | 1.0512     |   0.0 |  1.02
Output  | 4.0969     | 4.0969     | 4.0969     |   0.0 |  3.96
Modify  | 1.9074     | 1.9074     | 1.9074     |   0.0 |  1.84
Other   |            | 0.4656     |            |       |  0.45

Nlocal:           1400 ave        1400 max        1400 min
Histogram: 1 0 0 0 0 0 0 0 0 0
Nghost:           2135 ave        2135 max        2135 min
Histogram: 1 0 0 0 0 0 0 0 0 0
Neighs:          35554 ave       35554 max       35554 min
Histogram: 1 0 0 0 0 0 0 0 0 0
FullNghs:        71108 ave       71108 max       71108 min
Histogram: 1 0 0 0 0 0 0 0 0 0

Total # of neighbors = 71108
Ave neighs/atom = 50.791429
Neighbor list builds = 10000
Dangerous builds = 10000

###Write a binary restart file of the current state of the simulation
write_restart restart.deform_NVT
System init for write_restart ...


Total wall time: 0:01:43
